MODEL 1
REMARK VINA RESULT:      -6.3      0.000      0.000
REMARK SMILES Cc1ccc(OCc2cc(C(=O)NCc3c(C)noc3C)no2)cc1C
REMARK SMILES IDX 8 1 9 2 10 3 22 4 23 5 7 6 6 7 5 8 2 9 3 10 25 11 4 12 24 13
REMARK SMILES IDX 1 14 26 15 11 16 12 17 13 18 14 20 15 21 16 22 20 23 18 24
REMARK SMILES IDX 19 25 17 26 21 27
REMARK H PARENT 13 19
ROOT
ATOM      1  C   UNL     1     -29.613  -1.774  25.599  1.00  0.00     0.174 A 
ATOM      2  C   UNL     1     -29.468  -2.008  26.946  1.00  0.00     0.086 A 
ATOM      3  C   UNL     1     -29.478  -3.424  27.078  1.00  0.00     0.171 A 
ATOM      4  N   UNL     1     -29.617  -3.994  25.869  1.00  0.00    -0.074 NA
ATOM      5  O   UNL     1     -29.704  -2.965  24.955  1.00  0.00    -0.357 OA
ENDROOT
BRANCH   1   6
ATOM      6  C   UNL     1     -29.688  -0.568  24.742  1.00  0.00     0.307 C 
BRANCH   6   7
ATOM      7  O   UNL     1     -30.698   0.279  25.291  1.00  0.00    -0.486 OA
BRANCH   7   8
ATOM      8  C   UNL     1     -30.344   1.575  25.553  1.00  0.00     0.120 A 
ATOM      9  C   UNL     1     -29.584   4.164  26.371  1.00  0.00    -0.048 A 
ATOM     10  C   UNL     1     -29.662   3.114  27.295  1.00  0.00     0.007 A 
ATOM     11  C   UNL     1     -29.892   3.912  25.019  1.00  0.00    -0.045 A 
ATOM     12  C   UNL     1     -30.038   1.834  26.888  1.00  0.00     0.047 A 
ATOM     13  C   UNL     1     -30.271   2.614  24.624  1.00  0.00     0.050 A 
ATOM     14  C   UNL     1     -29.176   5.533  26.842  1.00  0.00     0.044 C 
ATOM     15  C   UNL     1     -29.825   5.005  23.987  1.00  0.00     0.045 C 
ENDBRANCH   7   8
ENDBRANCH   6   7
ENDBRANCH   1   6
BRANCH   3  16
ATOM     16  C   UNL     1     -29.358  -4.251  28.288  1.00  0.00     0.273 C 
ATOM     17  O   UNL     1     -28.308  -4.791  28.630  1.00  0.00    -0.267 OA
ATOM     18  N   UNL     1     -30.521  -4.397  29.023  1.00  0.00    -0.346 N 
ATOM     19  H   UNL     1     -31.394  -4.059  28.648  1.00  0.00     0.164 HD
BRANCH  18  20
ATOM     20  C   UNL     1     -30.586  -5.279  30.165  1.00  0.00     0.157 C 
BRANCH  20  21
ATOM     21  C   UNL     1     -30.893  -4.466  31.365  1.00  0.00     0.037 A 
ATOM     22  C   UNL     1     -29.991  -3.929  32.324  1.00  0.00     0.086 A 
ATOM     23  C   UNL     1     -32.130  -4.056  31.820  1.00  0.00     0.138 A 
ATOM     24  N   UNL     1     -30.636  -3.239  33.272  1.00  0.00    -0.085 NA
ATOM     25  O   UNL     1     -31.975  -3.320  32.952  1.00  0.00    -0.361 OA
ATOM     26  C   UNL     1     -28.515  -4.050  32.371  1.00  0.00     0.071 C 
ATOM     27  C   UNL     1     -33.514  -4.238  31.342  1.00  0.00     0.091 C 
ENDBRANCH  20  21
ENDBRANCH  18  20
ENDBRANCH   3  16
TORSDOF 6
ENDMDL
MODEL 2
REMARK VINA RESULT:      -6.2      0.393      1.592
REMARK SMILES Cc1ccc(OCc2cc(C(=O)NCc3c(C)noc3C)no2)cc1C
REMARK SMILES IDX 8 1 9 2 10 3 22 4 23 5 7 6 6 7 5 8 2 9 3 10 25 11 4 12 24 13
REMARK SMILES IDX 1 14 26 15 11 16 12 17 13 18 14 20 15 21 16 22 20 23 18 24
REMARK SMILES IDX 19 25 17 26 21 27
REMARK H PARENT 13 19
ROOT
ATOM      1  C   UNL     1     -29.584  -1.840  25.533  1.00  0.00     0.174 A 
ATOM      2  C   UNL     1     -29.436  -2.066  26.881  1.00  0.00     0.086 A 
ATOM      3  C   UNL     1     -29.470  -3.481  27.022  1.00  0.00     0.171 A 
ATOM      4  N   UNL     1     -29.625  -4.058  25.818  1.00  0.00    -0.074 NA
ATOM      5  O   UNL     1     -29.698  -3.034  24.897  1.00  0.00    -0.357 OA
ENDROOT
BRANCH   1   6
ATOM      6  C   UNL     1     -29.641  -0.639  24.667  1.00  0.00     0.307 C 
BRANCH   6   7
ATOM      7  O   UNL     1     -30.678   0.200  25.176  1.00  0.00    -0.486 OA
BRANCH   7   8
ATOM      8  C   UNL     1     -30.339   1.492  25.475  1.00  0.00     0.120 A 
ATOM      9  C   UNL     1     -29.609   4.065  26.366  1.00  0.00    -0.048 A 
ATOM     10  C   UNL     1     -29.673   2.988  27.260  1.00  0.00     0.007 A 
ATOM     11  C   UNL     1     -29.915   3.848  25.008  1.00  0.00    -0.045 A 
ATOM     12  C   UNL     1     -30.035   1.716  26.816  1.00  0.00     0.047 A 
ATOM     13  C   UNL     1     -30.278   2.557  24.576  1.00  0.00     0.050 A 
ATOM     14  C   UNL     1     -29.216   5.425  26.877  1.00  0.00     0.044 C 
ATOM     15  C   UNL     1     -29.862   4.971  24.008  1.00  0.00     0.045 C 
ENDBRANCH   7   8
ENDBRANCH   6   7
ENDBRANCH   1   6
BRANCH   3  16
ATOM     16  C   UNL     1     -29.359  -4.302  28.238  1.00  0.00     0.273 C 
ATOM     17  O   UNL     1     -28.321  -4.870  28.571  1.00  0.00    -0.267 OA
ATOM     18  N   UNL     1     -30.516  -4.406  28.990  1.00  0.00    -0.346 N 
ATOM     19  H   UNL     1     -31.383  -4.044  28.623  1.00  0.00     0.164 HD
BRANCH  18  20
ATOM     20  C   UNL     1     -30.592  -5.277  30.140  1.00  0.00     0.157 C 
BRANCH  20  21
ATOM     21  C   UNL     1     -30.852  -4.444  31.338  1.00  0.00     0.037 A 
ATOM     22  C   UNL     1     -32.100  -3.992  31.847  1.00  0.00     0.086 A 
ATOM     23  C   UNL     1     -29.933  -3.919  32.224  1.00  0.00     0.138 A 
ATOM     24  N   UNL     1     -31.943  -3.264  32.958  1.00  0.00    -0.085 NA
ATOM     25  O   UNL     1     -30.583  -3.222  33.191  1.00  0.00    -0.361 OA
ATOM     26  C   UNL     1     -33.459  -4.231  31.305  1.00  0.00     0.071 C 
ATOM     27  C   UNL     1     -28.462  -3.971  32.331  1.00  0.00     0.091 C 
ENDBRANCH  20  21
ENDBRANCH  18  20
ENDBRANCH   3  16
TORSDOF 6
ENDMDL
MODEL 3
REMARK VINA RESULT:      -6.2      5.029      8.956
REMARK SMILES Cc1ccc(OCc2cc(C(=O)NCc3c(C)noc3C)no2)cc1C
REMARK SMILES IDX 8 1 9 2 10 3 22 4 23 5 7 6 6 7 5 8 2 9 3 10 25 11 4 12 24 13
REMARK SMILES IDX 1 14 26 15 11 16 12 17 13 18 14 20 15 21 16 22 20 23 18 24
REMARK SMILES IDX 19 25 17 26 21 27
REMARK H PARENT 13 19
ROOT
ATOM      1  C   UNL     1     -29.256  -1.186  24.589  1.00  0.00     0.174 A 
ATOM      2  C   UNL     1     -29.429  -0.921  23.251  1.00  0.00     0.086 A 
ATOM      3  C   UNL     1     -28.183  -1.246  22.647  1.00  0.00     0.171 A 
ATOM      4  N   UNL     1     -27.322  -1.684  23.582  1.00  0.00    -0.074 NA
ATOM      5  O   UNL     1     -27.993  -1.642  24.786  1.00  0.00    -0.357 OA
ENDROOT
BRANCH   1   6
ATOM      6  C   UNL     1     -30.105  -1.089  25.799  1.00  0.00     0.307 C 
BRANCH   6   7
ATOM      7  O   UNL     1     -31.033  -0.027  25.581  1.00  0.00    -0.486 OA
BRANCH   7   8
ATOM      8  C   UNL     1     -30.575   1.247  25.779  1.00  0.00     0.120 A 
ATOM      9  C   UNL     1     -29.593   3.799  26.466  1.00  0.00    -0.048 A 
ATOM     10  C   UNL     1     -29.705   2.791  27.431  1.00  0.00     0.007 A 
ATOM     11  C   UNL     1     -29.980   3.525  25.139  1.00  0.00    -0.045 A 
ATOM     12  C   UNL     1     -30.191   1.529  27.088  1.00  0.00     0.047 A 
ATOM     13  C   UNL     1     -30.469   2.246  24.809  1.00  0.00     0.050 A 
ATOM     14  C   UNL     1     -29.066   5.150  26.868  1.00  0.00     0.044 C 
ATOM     15  C   UNL     1     -29.881   4.574  24.065  1.00  0.00     0.045 C 
ENDBRANCH   7   8
ENDBRANCH   6   7
ENDBRANCH   1   6
BRANCH   3  16
ATOM     16  C   UNL     1     -27.777  -1.162  21.236  1.00  0.00     0.273 C 
ATOM     17  O   UNL     1     -28.581  -1.173  20.306  1.00  0.00    -0.267 OA
ATOM     18  N   UNL     1     -26.414  -1.080  21.015  1.00  0.00    -0.346 N 
ATOM     19  H   UNL     1     -25.775  -1.211  21.784  1.00  0.00     0.164 HD
BRANCH  18  20
ATOM     20  C   UNL     1     -25.863  -1.117  19.681  1.00  0.00     0.157 C 
BRANCH  20  21
ATOM     21  C   UNL     1     -24.487  -0.570  19.729  1.00  0.00     0.037 A 
ATOM     22  C   UNL     1     -24.068   0.784  19.604  1.00  0.00     0.086 A 
ATOM     23  C   UNL     1     -23.303  -1.259  19.903  1.00  0.00     0.138 A 
ATOM     24  N   UNL     1     -22.739   0.898  19.708  1.00  0.00    -0.085 NA
ATOM     25  O   UNL     1     -22.264  -0.383  19.896  1.00  0.00    -0.361 OA
ATOM     26  C   UNL     1     -24.900   1.991  19.385  1.00  0.00     0.071 C 
ATOM     27  C   UNL     1     -22.960  -2.681  20.096  1.00  0.00     0.091 C 
ENDBRANCH  20  21
ENDBRANCH  18  20
ENDBRANCH   3  16
TORSDOF 6
ENDMDL
MODEL 4
REMARK VINA RESULT:      -6.1      4.982      8.891
REMARK SMILES Cc1ccc(OCc2cc(C(=O)NCc3c(C)noc3C)no2)cc1C
REMARK SMILES IDX 8 1 9 2 10 3 22 4 23 5 7 6 6 7 5 8 2 9 3 10 25 11 4 12 24 13
REMARK SMILES IDX 1 14 26 15 11 16 12 17 13 18 14 20 15 21 16 22 20 23 18 24
REMARK SMILES IDX 19 25 17 26 21 27
REMARK H PARENT 13 19
ROOT
ATOM      1  C   UNL     1     -29.276  -1.184  24.632  1.00  0.00     0.174 A 
ATOM      2  C   UNL     1     -29.442  -0.965  23.284  1.00  0.00     0.086 A 
ATOM      3  C   UNL     1     -28.184  -1.285  22.702  1.00  0.00     0.171 A 
ATOM      4  N   UNL     1     -27.324  -1.677  23.658  1.00  0.00    -0.074 NA
ATOM      5  O   UNL     1     -28.007  -1.610  24.854  1.00  0.00    -0.357 OA
ENDROOT
BRANCH   1   6
ATOM      6  C   UNL     1     -30.138  -1.065  25.831  1.00  0.00     0.307 C 
BRANCH   6   7
ATOM      7  O   UNL     1     -31.057   0.001  25.587  1.00  0.00    -0.486 OA
BRANCH   7   8
ATOM      8  C   UNL     1     -30.593   1.274  25.773  1.00  0.00     0.120 A 
ATOM      9  C   UNL     1     -29.598   3.828  26.435  1.00  0.00    -0.048 A 
ATOM     10  C   UNL     1     -29.710   2.828  27.409  1.00  0.00     0.007 A 
ATOM     11  C   UNL     1     -29.989   3.543  25.112  1.00  0.00    -0.045 A 
ATOM     12  C   UNL     1     -30.203   1.565  27.079  1.00  0.00     0.047 A 
ATOM     13  C   UNL     1     -30.485   2.264  24.795  1.00  0.00     0.050 A 
ATOM     14  C   UNL     1     -29.063   5.180  26.825  1.00  0.00     0.044 C 
ATOM     15  C   UNL     1     -29.889   4.584  24.029  1.00  0.00     0.045 C 
ENDBRANCH   7   8
ENDBRANCH   6   7
ENDBRANCH   1   6
BRANCH   3  16
ATOM     16  C   UNL     1     -27.767  -1.239  21.292  1.00  0.00     0.273 C 
ATOM     17  O   UNL     1     -28.566  -1.213  20.358  1.00  0.00    -0.267 OA
ATOM     18  N   UNL     1     -26.400  -1.236  21.079  1.00  0.00    -0.346 N 
ATOM     19  H   UNL     1     -25.774  -1.395  21.853  1.00  0.00     0.164 HD
BRANCH  18  20
ATOM     20  C   UNL     1     -25.845  -1.317  19.748  1.00  0.00     0.157 C 
BRANCH  20  21
ATOM     21  C   UNL     1     -24.659  -0.432  19.683  1.00  0.00     0.037 A 
ATOM     22  C   UNL     1     -23.289  -0.774  19.856  1.00  0.00     0.086 A 
ATOM     23  C   UNL     1     -24.624   0.927  19.444  1.00  0.00     0.138 A 
ATOM     24  N   UNL     1     -22.495   0.294  19.719  1.00  0.00    -0.085 NA
ATOM     25  O   UNL     1     -23.335   1.357  19.459  1.00  0.00    -0.361 OA
ATOM     26  C   UNL     1     -22.700  -2.102  20.152  1.00  0.00     0.071 C 
ATOM     27  C   UNL     1     -25.653   1.951  19.178  1.00  0.00     0.091 C 
ENDBRANCH  20  21
ENDBRANCH  18  20
ENDBRANCH   3  16
TORSDOF 6
ENDMDL
MODEL 5
REMARK VINA RESULT:      -5.9      1.832      2.508
REMARK SMILES Cc1ccc(OCc2cc(C(=O)NCc3c(C)noc3C)no2)cc1C
REMARK SMILES IDX 8 1 9 2 10 3 22 4 23 5 7 6 6 7 5 8 2 9 3 10 25 11 4 12 24 13
REMARK SMILES IDX 1 14 26 15 11 16 12 17 13 18 14 20 15 21 16 22 20 23 18 24
REMARK SMILES IDX 19 25 17 26 21 27
REMARK H PARENT 13 19
ROOT
ATOM      1  C   UNL     1     -29.398  -1.966  26.520  1.00  0.00     0.174 A 
ATOM      2  C   UNL     1     -30.279  -2.331  27.510  1.00  0.00     0.086 A 
ATOM      3  C   UNL     1     -29.710  -3.494  28.098  1.00  0.00     0.171 A 
ATOM      4  N   UNL     1     -28.551  -3.795  27.488  1.00  0.00    -0.074 NA
ATOM      5  O   UNL     1     -28.364  -2.845  26.507  1.00  0.00    -0.357 OA
ENDROOT
BRANCH   1   6
ATOM      6  C   UNL     1     -29.334  -0.878  25.516  1.00  0.00     0.307 C 
BRANCH   6   7
ATOM      7  O   UNL     1     -30.466  -0.035  25.734  1.00  0.00    -0.486 OA
BRANCH   7   8
ATOM      8  C   UNL     1     -30.227   1.308  25.840  1.00  0.00     0.120 A 
ATOM      9  C   UNL     1     -29.699   4.032  26.344  1.00  0.00    -0.048 A 
ATOM     10  C   UNL     1     -29.699   3.097  27.387  1.00  0.00     0.007 A 
ATOM     11  C   UNL     1     -29.968   3.595  25.032  1.00  0.00    -0.045 A 
ATOM     12  C   UNL     1     -29.960   1.750  27.135  1.00  0.00     0.047 A 
ATOM     13  C   UNL     1     -30.230   2.232  24.794  1.00  0.00     0.050 A 
ATOM     14  C   UNL     1     -29.414   5.477  26.649  1.00  0.00     0.044 C 
ATOM     15  C   UNL     1     -29.981   4.560  23.876  1.00  0.00     0.045 C 
ENDBRANCH   7   8
ENDBRANCH   6   7
ENDBRANCH   1   6
BRANCH   3  16
ATOM     16  C   UNL     1     -30.212  -4.323  29.205  1.00  0.00     0.273 C 
ATOM     17  O   UNL     1     -31.333  -4.188  29.689  1.00  0.00    -0.267 OA
ATOM     18  N   UNL     1     -29.325  -5.272  29.683  1.00  0.00    -0.346 N 
ATOM     19  H   UNL     1     -28.369  -5.269  29.361  1.00  0.00     0.164 HD
BRANCH  18  20
ATOM     20  C   UNL     1     -29.632  -6.073  30.845  1.00  0.00     0.157 C 
BRANCH  20  21
ATOM     21  C   UNL     1     -28.727  -5.664  31.945  1.00  0.00     0.037 A 
ATOM     22  C   UNL     1     -28.916  -4.638  32.911  1.00  0.00     0.086 A 
ATOM     23  C   UNL     1     -27.494  -6.191  32.271  1.00  0.00     0.138 A 
ATOM     24  N   UNL     1     -27.883  -4.563  33.757  1.00  0.00    -0.085 NA
ATOM     25  O   UNL     1     -26.994  -5.539  33.353  1.00  0.00    -0.361 OA
ATOM     26  C   UNL     1     -30.063  -3.710  33.059  1.00  0.00     0.071 C 
ATOM     27  C   UNL     1     -26.657  -7.272  31.714  1.00  0.00     0.091 C 
ENDBRANCH  20  21
ENDBRANCH  18  20
ENDBRANCH   3  16
TORSDOF 6
ENDMDL
MODEL 6
REMARK VINA RESULT:      -5.5      1.551      1.867
REMARK SMILES Cc1ccc(OCc2cc(C(=O)NCc3c(C)noc3C)no2)cc1C
REMARK SMILES IDX 8 1 9 2 10 3 22 4 23 5 7 6 6 7 5 8 2 9 3 10 25 11 4 12 24 13
REMARK SMILES IDX 1 14 26 15 11 16 12 17 13 18 14 20 15 21 16 22 20 23 18 24
REMARK SMILES IDX 19 25 17 26 21 27
REMARK H PARENT 13 19
ROOT
ATOM      1  C   UNL     1     -30.313  -1.547  26.740  1.00  0.00     0.174 A 
ATOM      2  C   UNL     1     -30.444  -2.453  27.765  1.00  0.00     0.086 A 
ATOM      3  C   UNL     1     -29.521  -3.491  27.460  1.00  0.00     0.171 A 
ATOM      4  N   UNL     1     -28.875  -3.206  26.316  1.00  0.00    -0.074 NA
ATOM      5  O   UNL     1     -29.374  -2.000  25.872  1.00  0.00    -0.357 OA
ENDROOT
BRANCH   1   6
ATOM      6  C   UNL     1     -30.941  -0.250  26.395  1.00  0.00     0.307 C 
BRANCH   6   7
ATOM      7  O   UNL     1     -30.235   0.765  27.109  1.00  0.00    -0.486 OA
BRANCH   7   8
ATOM      8  C   UNL     1     -30.067   1.966  26.475  1.00  0.00     0.120 A 
ATOM      9  C   UNL     1     -29.644   4.549  25.427  1.00  0.00    -0.048 A 
ATOM     10  C   UNL     1     -29.432   4.283  26.786  1.00  0.00     0.007 A 
ATOM     11  C   UNL     1     -30.074   3.506  24.583  1.00  0.00    -0.045 A 
ATOM     12  C   UNL     1     -29.642   3.004  27.302  1.00  0.00     0.047 A 
ATOM     13  C   UNL     1     -30.282   2.220  25.120  1.00  0.00     0.050 A 
ATOM     14  C   UNL     1     -29.408   5.940  24.902  1.00  0.00     0.044 C 
ATOM     15  C   UNL     1     -30.317   3.740  23.116  1.00  0.00     0.045 C 
ENDBRANCH   7   8
ENDBRANCH   6   7
ENDBRANCH   1   6
BRANCH   3  16
ATOM     16  C   UNL     1     -29.223  -4.726  28.201  1.00  0.00     0.273 C 
ATOM     17  O   UNL     1     -29.167  -5.831  27.666  1.00  0.00    -0.267 OA
ATOM     18  N   UNL     1     -29.018  -4.567  29.560  1.00  0.00    -0.346 N 
ATOM     19  H   UNL     1     -29.204  -3.675  29.992  1.00  0.00     0.164 HD
BRANCH  18  20
ATOM     20  C   UNL     1     -28.839  -5.703  30.434  1.00  0.00     0.157 C 
BRANCH  20  21
ATOM     21  C   UNL     1     -28.787  -5.214  31.831  1.00  0.00     0.037 A 
ATOM     22  C   UNL     1     -27.798  -5.467  32.821  1.00  0.00     0.086 A 
ATOM     23  C   UNL     1     -29.695  -4.404  32.483  1.00  0.00     0.138 A 
ATOM     24  N   UNL     1     -28.084  -4.847  33.971  1.00  0.00    -0.085 NA
ATOM     25  O   UNL     1     -29.273  -4.181  33.755  1.00  0.00    -0.361 OA
ATOM     26  C   UNL     1     -26.571  -6.290  32.709  1.00  0.00     0.071 C 
ATOM     27  C   UNL     1     -30.963  -3.757  32.091  1.00  0.00     0.091 C 
ENDBRANCH  20  21
ENDBRANCH  18  20
ENDBRANCH   3  16
TORSDOF 6
ENDMDL
MODEL 7
REMARK VINA RESULT:      -5.5      8.481     12.919
REMARK SMILES Cc1ccc(OCc2cc(C(=O)NCc3c(C)noc3C)no2)cc1C
REMARK SMILES IDX 8 1 9 2 10 3 22 4 23 5 7 6 6 7 5 8 2 9 3 10 25 11 4 12 24 13
REMARK SMILES IDX 1 14 26 15 11 16 12 17 13 18 14 20 15 21 16 22 20 23 18 24
REMARK SMILES IDX 19 25 17 26 21 27
REMARK H PARENT 13 19
ROOT
ATOM      1  C   UNL     1     -26.516   7.677  26.568  1.00  0.00     0.174 A 
ATOM      2  C   UNL     1     -26.087   7.791  25.267  1.00  0.00     0.086 A 
ATOM      3  C   UNL     1     -24.699   8.087  25.361  1.00  0.00     0.171 A 
ATOM      4  N   UNL     1     -24.330   8.141  26.652  1.00  0.00    -0.074 NA
ATOM      5  O   UNL     1     -25.462   7.888  27.397  1.00  0.00    -0.357 OA
ENDROOT
BRANCH   1   6
ATOM      6  C   UNL     1     -27.810   7.388  27.228  1.00  0.00     0.307 C 
BRANCH   6   7
ATOM      7  O   UNL     1     -28.784   7.224  26.197  1.00  0.00    -0.486 OA
BRANCH   7   8
ATOM      8  C   UNL     1     -29.179   5.944  25.916  1.00  0.00     0.120 A 
ATOM      9  C   UNL     1     -30.016   3.392  25.060  1.00  0.00    -0.048 A 
ATOM     10  C   UNL     1     -29.878   4.445  24.147  1.00  0.00     0.007 A 
ATOM     11  C   UNL     1     -29.731   3.622  26.420  1.00  0.00    -0.045 A 
ATOM     12  C   UNL     1     -29.463   5.707  24.573  1.00  0.00     0.047 A 
ATOM     13  C   UNL     1     -29.314   4.902  26.835  1.00  0.00     0.050 A 
ATOM     14  C   UNL     1     -30.466   2.043  24.568  1.00  0.00     0.044 C 
ATOM     15  C   UNL     1     -29.865   2.525  27.442  1.00  0.00     0.045 C 
ENDBRANCH   7   8
ENDBRANCH   6   7
ENDBRANCH   1   6
BRANCH   3  16
ATOM     16  C   UNL     1     -23.717   8.317  24.290  1.00  0.00     0.273 C 
ATOM     17  O   UNL     1     -24.019   8.777  23.191  1.00  0.00    -0.267 OA
ATOM     18  N   UNL     1     -22.414   7.967  24.597  1.00  0.00    -0.346 N 
ATOM     19  H   UNL     1     -22.220   7.467  25.451  1.00  0.00     0.164 HD
BRANCH  18  20
ATOM     20  C   UNL     1     -21.366   8.020  23.605  1.00  0.00     0.157 C 
BRANCH  20  21
ATOM     21  C   UNL     1     -20.063   8.090  24.307  1.00  0.00     0.037 A 
ATOM     22  C   UNL     1     -19.539   9.149  25.097  1.00  0.00     0.086 A 
ATOM     23  C   UNL     1     -19.065   7.137  24.342  1.00  0.00     0.138 A 
ATOM     24  N   UNL     1     -18.328   8.850  25.580  1.00  0.00    -0.085 NA
ATOM     25  O   UNL     1     -18.035   7.588  25.106  1.00  0.00    -0.361 OA
ATOM     26  C   UNL     1     -20.160  10.457  25.415  1.00  0.00     0.071 C 
ATOM     27  C   UNL     1     -18.905   5.792  23.757  1.00  0.00     0.091 C 
ENDBRANCH  20  21
ENDBRANCH  18  20
ENDBRANCH   3  16
TORSDOF 6
ENDMDL
MODEL 8
REMARK VINA RESULT:      -5.4      4.571      7.612
REMARK SMILES Cc1ccc(OCc2cc(C(=O)NCc3c(C)noc3C)no2)cc1C
REMARK SMILES IDX 8 1 9 2 10 3 22 4 23 5 7 6 6 7 5 8 2 9 3 10 25 11 4 12 24 13
REMARK SMILES IDX 1 14 26 15 11 16 12 17 13 18 14 20 15 21 16 22 20 23 18 24
REMARK SMILES IDX 19 25 17 26 21 27
REMARK H PARENT 13 19
ROOT
ATOM      1  C   UNL     1     -28.916  -1.386  23.630  1.00  0.00     0.174 A 
ATOM      2  C   UNL     1     -29.860  -0.563  24.197  1.00  0.00     0.086 A 
ATOM      3  C   UNL     1     -29.531  -0.523  25.580  1.00  0.00     0.171 A 
ATOM      4  N   UNL     1     -28.445  -1.280  25.814  1.00  0.00    -0.074 NA
ATOM      5  O   UNL     1     -28.070  -1.816  24.600  1.00  0.00    -0.357 OA
ENDROOT
BRANCH   1   6
ATOM      6  C   UNL     1     -28.636  -1.880  22.262  1.00  0.00     0.307 C 
BRANCH   6   7
ATOM      7  O   UNL     1     -27.218  -1.987  22.133  1.00  0.00    -0.486 OA
BRANCH   7   8
ATOM      8  C   UNL     1     -26.602  -1.092  21.302  1.00  0.00     0.120 A 
ATOM      9  C   UNL     1     -25.593   0.799  19.469  1.00  0.00    -0.048 A 
ATOM     10  C   UNL     1     -26.954   0.467  19.481  1.00  0.00     0.007 A 
ATOM     11  C   UNL     1     -24.727   0.174  20.388  1.00  0.00    -0.045 A 
ATOM     12  C   UNL     1     -27.450  -0.468  20.389  1.00  0.00     0.047 A 
ATOM     13  C   UNL     1     -25.244  -0.769  21.298  1.00  0.00     0.050 A 
ATOM     14  C   UNL     1     -25.089   1.811  18.477  1.00  0.00     0.044 C 
ATOM     15  C   UNL     1     -23.256   0.494  20.416  1.00  0.00     0.045 C 
ENDBRANCH   7   8
ENDBRANCH   6   7
ENDBRANCH   1   6
BRANCH   3  16
ATOM     16  C   UNL     1     -30.192   0.198  26.679  1.00  0.00     0.273 C 
ATOM     17  O   UNL     1     -31.129  -0.272  27.321  1.00  0.00    -0.267 OA
ATOM     18  N   UNL     1     -29.694   1.462  26.942  1.00  0.00    -0.346 N 
ATOM     19  H   UNL     1     -29.021   1.873  26.314  1.00  0.00     0.164 HD
BRANCH  18  20
ATOM     20  C   UNL     1     -30.323   2.333  27.907  1.00  0.00     0.157 C 
BRANCH  20  21
ATOM     21  C   UNL     1     -30.959   3.455  27.178  1.00  0.00     0.037 A 
ATOM     22  C   UNL     1     -32.317   3.594  26.780  1.00  0.00     0.086 A 
ATOM     23  C   UNL     1     -30.368   4.614  26.718  1.00  0.00     0.138 A 
ATOM     24  N   UNL     1     -32.526   4.752  26.143  1.00  0.00    -0.085 NA
ATOM     25  O   UNL     1     -31.303   5.388  26.107  1.00  0.00    -0.361 OA
ATOM     26  C   UNL     1     -33.441   2.650  26.988  1.00  0.00     0.071 C 
ATOM     27  C   UNL     1     -28.996   5.158  26.763  1.00  0.00     0.091 C 
ENDBRANCH  20  21
ENDBRANCH  18  20
ENDBRANCH   3  16
TORSDOF 6
ENDMDL
MODEL 9
REMARK VINA RESULT:      -5.4      8.031     12.275
REMARK SMILES Cc1ccc(OCc2cc(C(=O)NCc3c(C)noc3C)no2)cc1C
REMARK SMILES IDX 8 1 9 2 10 3 22 4 23 5 7 6 6 7 5 8 2 9 3 10 25 11 4 12 24 13
REMARK SMILES IDX 1 14 26 15 11 16 12 17 13 18 14 20 15 21 16 22 20 23 18 24
REMARK SMILES IDX 19 25 17 26 21 27
REMARK H PARENT 13 19
ROOT
ATOM      1  C   UNL     1     -27.253   7.443  26.004  1.00  0.00     0.174 A 
ATOM      2  C   UNL     1     -26.372   8.172  25.241  1.00  0.00     0.086 A 
ATOM      3  C   UNL     1     -25.100   7.954  25.837  1.00  0.00     0.171 A 
ATOM      4  N   UNL     1     -25.225   7.134  26.895  1.00  0.00    -0.074 NA
ATOM      5  O   UNL     1     -26.564   6.822  26.996  1.00  0.00    -0.357 OA
ENDROOT
BRANCH   1   6
ATOM      6  C   UNL     1     -28.714   7.199  25.981  1.00  0.00     0.307 C 
BRANCH   6   7
ATOM      7  O   UNL     1     -28.978   6.123  26.882  1.00  0.00    -0.486 OA
BRANCH   7   8
ATOM      8  C   UNL     1     -29.386   4.939  26.331  1.00  0.00     0.120 A 
ATOM      9  C   UNL     1     -30.244   2.641  24.942  1.00  0.00    -0.048 A 
ATOM     10  C   UNL     1     -30.079   3.861  24.275  1.00  0.00     0.007 A 
ATOM     11  C   UNL     1     -29.976   2.572  26.323  1.00  0.00    -0.045 A 
ATOM     12  C   UNL     1     -29.654   4.997  24.965  1.00  0.00     0.047 A 
ATOM     13  C   UNL     1     -29.547   3.728  27.006  1.00  0.00     0.050 A 
ATOM     14  C   UNL     1     -30.705   1.435  24.169  1.00  0.00     0.044 C 
ATOM     15  C   UNL     1     -30.139   1.285  27.087  1.00  0.00     0.045 C 
ENDBRANCH   7   8
ENDBRANCH   6   7
ENDBRANCH   1   6
BRANCH   3  16
ATOM     16  C   UNL     1     -23.782   8.481  25.449  1.00  0.00     0.273 C 
ATOM     17  O   UNL     1     -23.633   9.562  24.885  1.00  0.00    -0.267 OA
ATOM     18  N   UNL     1     -22.706   7.666  25.754  1.00  0.00    -0.346 N 
ATOM     19  H   UNL     1     -22.868   6.730  26.090  1.00  0.00     0.164 HD
BRANCH  18  20
ATOM     20  C   UNL     1     -21.367   7.995  25.324  1.00  0.00     0.157 C 
BRANCH  20  21
ATOM     21  C   UNL     1     -20.587   8.418  26.510  1.00  0.00     0.037 A 
ATOM     22  C   UNL     1     -19.726   7.636  27.329  1.00  0.00     0.086 A 
ATOM     23  C   UNL     1     -20.529   9.671  27.087  1.00  0.00     0.138 A 
ATOM     24  N   UNL     1     -19.185   8.365  28.311  1.00  0.00    -0.085 NA
ATOM     25  O   UNL     1     -19.689   9.640  28.155  1.00  0.00    -0.361 OA
ATOM     26  C   UNL     1     -19.396   6.196  27.207  1.00  0.00     0.071 C 
ATOM     27  C   UNL     1     -21.155  10.973  26.785  1.00  0.00     0.091 C 
ENDBRANCH  20  21
ENDBRANCH  18  20
ENDBRANCH   3  16
TORSDOF 6
ENDMDL
