MODEL 1
REMARK VINA RESULT:      -5.7      0.000      0.000
REMARK SMILES O=C(CCc1ccccc1)NNC(=O)C1CCN(c2ncccn2)CC1
REMARK SMILES IDX 1 1 2 2 11 3 3 5 4 6 5 7 6 8 10 9 7 10 9 11 8 12 12 13 13 14
REMARK SMILES IDX 14 15 15 17 16 18 26 19 17 20 25 21 18 22 19 23 20 24 24 25
REMARK SMILES IDX 21 26 23 27 22 28
REMARK H PARENT 11 4 12 16
ROOT
ATOM      1  O   UNL     1     -27.372  -1.870  26.356  1.00  0.00    -0.273 OA
ATOM      2  C   UNL     1     -28.570  -1.855  26.084  1.00  0.00     0.238 C 
ATOM      3  N   UNL     1     -29.498  -2.621  26.767  1.00  0.00    -0.268 N 
ATOM      4  H   UNL     1     -30.481  -2.341  26.771  1.00  0.00     0.191 HD
ENDROOT
BRANCH   2   5
ATOM      5  C   UNL     1     -29.187  -1.023  24.984  1.00  0.00     0.106 C 
BRANCH   5   6
ATOM      6  C   UNL     1     -30.481  -0.357  25.441  1.00  0.00     0.045 C 
BRANCH   6   7
ATOM      7  C   UNL     1     -30.262   1.098  25.773  1.00  0.00    -0.048 A 
ATOM      8  C   UNL     1     -30.017   1.497  27.094  1.00  0.00     0.004 A 
ATOM      9  C   UNL     1     -30.270   2.067  24.760  1.00  0.00     0.004 A 
ATOM     10  C   UNL     1     -29.792   2.841  27.396  1.00  0.00     0.000 A 
ATOM     11  C   UNL     1     -30.044   3.410  25.065  1.00  0.00     0.000 A 
ATOM     12  C   UNL     1     -29.805   3.796  26.382  1.00  0.00     0.000 A 
ENDBRANCH   6   7
ENDBRANCH   5   6
ENDBRANCH   2   5
BRANCH   3  13
ATOM     13  N   UNL     1     -29.059  -3.222  27.965  1.00  0.00    -0.267 N 
ATOM     14  C   UNL     1     -30.033  -3.537  28.890  1.00  0.00     0.241 C 
ATOM     15  O   UNL     1     -31.233  -3.503  28.613  1.00  0.00    -0.273 OA
ATOM     16  H   UNL     1     -28.128  -2.934  28.267  1.00  0.00     0.191 HD
BRANCH  14  17
ATOM     17  C   UNL     1     -29.536  -3.920  30.273  1.00  0.00     0.084 C 
ATOM     18  C   UNL     1     -30.653  -3.862  31.316  1.00  0.00     0.035 C 
ATOM     19  C   UNL     1     -28.888  -5.305  30.268  1.00  0.00     0.035 C 
ATOM     20  C   UNL     1     -30.126  -4.237  32.700  1.00  0.00     0.120 C 
ATOM     21  C   UNL     1     -28.375  -5.671  31.660  1.00  0.00     0.120 C 
ATOM     22  N   UNL     1     -29.450  -5.535  32.644  1.00  0.00    -0.341 N 
BRANCH  22  23
ATOM     23  C   UNL     1     -29.109  -6.035  33.911  1.00  0.00     0.225 A 
ATOM     24  N   UNL     1     -29.326  -7.336  34.180  1.00  0.00    -0.221 NA
ATOM     25  N   UNL     1     -28.550  -5.207  34.811  1.00  0.00    -0.221 NA
ATOM     26  C   UNL     1     -28.962  -7.802  35.390  1.00  0.00     0.117 A 
ATOM     27  C   UNL     1     -28.201  -5.714  36.009  1.00  0.00     0.117 A 
ATOM     28  C   UNL     1     -28.386  -7.025  36.359  1.00  0.00     0.040 A 
ENDBRANCH  22  23
ENDBRANCH  14  17
ENDBRANCH   3  13
TORSDOF 6
ENDMDL
MODEL 2
REMARK VINA RESULT:      -5.7      1.026      1.629
REMARK SMILES O=C(CCc1ccccc1)NNC(=O)C1CCN(c2ncccn2)CC1
REMARK SMILES IDX 1 1 2 2 11 3 3 5 4 6 5 7 6 8 10 9 7 10 9 11 8 12 12 13 13 14
REMARK SMILES IDX 14 15 15 17 16 18 26 19 17 20 25 21 18 22 19 23 20 24 24 25
REMARK SMILES IDX 21 26 23 27 22 28
REMARK H PARENT 11 4 12 16
ROOT
ATOM      1  O   UNL     1     -27.754  -1.792  26.709  1.00  0.00    -0.273 OA
ATOM      2  C   UNL     1     -28.929  -1.438  26.685  1.00  0.00     0.238 C 
ATOM      3  N   UNL     1     -29.910  -2.062  27.437  1.00  0.00    -0.268 N 
ATOM      4  H   UNL     1     -30.766  -1.555  27.672  1.00  0.00     0.191 HD
ENDROOT
BRANCH   2   5
ATOM      5  C   UNL     1     -29.465  -0.301  25.844  1.00  0.00     0.106 C 
BRANCH   5   6
ATOM      6  C   UNL     1     -30.328   0.649  26.668  1.00  0.00     0.045 C 
BRANCH   6   7
ATOM      7  C   UNL     1     -30.090   2.086  26.279  1.00  0.00    -0.048 A 
ATOM      8  C   UNL     1     -29.629   3.011  27.225  1.00  0.00     0.004 A 
ATOM      9  C   UNL     1     -30.294   2.508  24.958  1.00  0.00     0.004 A 
ATOM     10  C   UNL     1     -29.386   4.336  26.859  1.00  0.00     0.000 A 
ATOM     11  C   UNL     1     -30.050   3.832  24.594  1.00  0.00     0.000 A 
ATOM     12  C   UNL     1     -29.597   4.746  25.544  1.00  0.00     0.000 A 
ENDBRANCH   6   7
ENDBRANCH   5   6
ENDBRANCH   2   5
BRANCH   3  13
ATOM     13  N   UNL     1     -29.465  -2.951  28.437  1.00  0.00    -0.267 N 
ATOM     14  C   UNL     1     -30.407  -3.815  28.956  1.00  0.00     0.241 C 
ATOM     15  O   UNL     1     -31.515  -3.963  28.438  1.00  0.00    -0.273 OA
ATOM     16  H   UNL     1     -28.712  -2.589  29.023  1.00  0.00     0.191 HD
BRANCH  14  17
ATOM     17  C   UNL     1     -29.998  -4.567  30.211  1.00  0.00     0.084 C 
ATOM     18  C   UNL     1     -28.557  -5.073  30.126  1.00  0.00     0.035 C 
ATOM     19  C   UNL     1     -30.183  -3.707  31.461  1.00  0.00     0.035 C 
ATOM     20  C   UNL     1     -28.173  -5.838  31.391  1.00  0.00     0.120 C 
ATOM     21  C   UNL     1     -29.785  -4.480  32.718  1.00  0.00     0.120 C 
ATOM     22  N   UNL     1     -28.429  -5.012  32.573  1.00  0.00    -0.341 N 
BRANCH  22  23
ATOM     23  C   UNL     1     -27.923  -5.570  33.758  1.00  0.00     0.225 A 
ATOM     24  N   UNL     1     -28.516  -5.268  34.927  1.00  0.00    -0.221 NA
ATOM     25  N   UNL     1     -26.876  -6.413  33.688  1.00  0.00    -0.221 NA
ATOM     26  C   UNL     1     -28.035  -5.840  36.048  1.00  0.00     0.117 A 
ATOM     27  C   UNL     1     -26.427  -6.961  34.832  1.00  0.00     0.117 A 
ATOM     28  C   UNL     1     -26.976  -6.708  36.061  1.00  0.00     0.040 A 
ENDBRANCH  22  23
ENDBRANCH  14  17
ENDBRANCH   3  13
TORSDOF 6
ENDMDL
MODEL 3
REMARK VINA RESULT:      -5.7      1.260      2.012
REMARK SMILES O=C(CCc1ccccc1)NNC(=O)C1CCN(c2ncccn2)CC1
REMARK SMILES IDX 1 1 2 2 11 3 3 5 4 6 5 7 6 8 10 9 7 10 9 11 8 12 12 13 13 14
REMARK SMILES IDX 14 15 15 17 16 18 26 19 17 20 25 21 18 22 19 23 20 24 24 25
REMARK SMILES IDX 21 26 23 27 22 28
REMARK H PARENT 11 4 12 16
ROOT
ATOM      1  O   UNL     1     -27.773  -1.794  26.731  1.00  0.00    -0.273 OA
ATOM      2  C   UNL     1     -28.722  -1.817  25.951  1.00  0.00     0.238 C 
ATOM      3  N   UNL     1     -29.702  -2.792  25.999  1.00  0.00    -0.268 N 
ATOM      4  H   UNL     1     -30.625  -2.602  25.602  1.00  0.00     0.191 HD
ENDROOT
BRANCH   2   5
ATOM      5  C   UNL     1     -28.944  -0.811  24.845  1.00  0.00     0.106 C 
BRANCH   5   6
ATOM      6  C   UNL     1     -30.291  -0.110  24.985  1.00  0.00     0.045 C 
BRANCH   6   7
ATOM      7  C   UNL     1     -30.134   1.273  25.564  1.00  0.00    -0.048 A 
ATOM      8  C   UNL     1     -30.180   2.401  24.734  1.00  0.00     0.004 A 
ATOM      9  C   UNL     1     -29.972   1.451  26.945  1.00  0.00     0.004 A 
ATOM     10  C   UNL     1     -30.058   3.682  25.274  1.00  0.00     0.000 A 
ATOM     11  C   UNL     1     -29.850   2.732  27.482  1.00  0.00     0.000 A 
ATOM     12  C   UNL     1     -29.892   3.847  26.647  1.00  0.00     0.000 A 
ENDBRANCH   6   7
ENDBRANCH   5   6
ENDBRANCH   2   5
BRANCH   3  13
ATOM     13  N   UNL     1     -29.720  -3.610  27.147  1.00  0.00    -0.267 N 
ATOM     14  C   UNL     1     -30.812  -3.478  27.981  1.00  0.00     0.241 C 
ATOM     15  O   UNL     1     -31.818  -2.852  27.647  1.00  0.00    -0.273 OA
ATOM     16  H   UNL     1     -28.798  -3.828  27.527  1.00  0.00     0.191 HD
BRANCH  14  17
ATOM     17  C   UNL     1     -30.694  -4.147  29.340  1.00  0.00     0.084 C 
ATOM     18  C   UNL     1     -29.374  -3.801  30.031  1.00  0.00     0.035 C 
ATOM     19  C   UNL     1     -31.874  -3.787  30.243  1.00  0.00     0.035 C 
ATOM     20  C   UNL     1     -29.270  -4.496  31.387  1.00  0.00     0.120 C 
ATOM     21  C   UNL     1     -31.753  -4.480  31.599  1.00  0.00     0.120 C 
ATOM     22  N   UNL     1     -30.450  -4.187  32.200  1.00  0.00    -0.341 N 
BRANCH  22  23
ATOM     23  C   UNL     1     -30.339  -4.631  33.527  1.00  0.00     0.225 A 
ATOM     24  N   UNL     1     -31.236  -4.207  34.435  1.00  0.00    -0.221 NA
ATOM     25  N   UNL     1     -29.354  -5.490  33.848  1.00  0.00    -0.221 NA
ATOM     26  C   UNL     1     -31.130  -4.670  35.695  1.00  0.00     0.117 A 
ATOM     27  C   UNL     1     -29.285  -5.927  35.119  1.00  0.00     0.117 A 
ATOM     28  C   UNL     1     -30.159  -5.545  36.102  1.00  0.00     0.040 A 
ENDBRANCH  22  23
ENDBRANCH  14  17
ENDBRANCH   3  13
TORSDOF 6
ENDMDL
MODEL 4
REMARK VINA RESULT:      -5.6      7.294     10.949
REMARK SMILES O=C(CCc1ccccc1)NNC(=O)C1CCN(c2ncccn2)CC1
REMARK SMILES IDX 1 1 2 2 11 3 3 5 4 6 5 7 6 8 10 9 7 10 9 11 8 12 12 13 13 14
REMARK SMILES IDX 14 15 15 17 16 18 26 19 17 20 25 21 18 22 19 23 20 24 24 25
REMARK SMILES IDX 21 26 23 27 22 28
REMARK H PARENT 11 4 12 16
ROOT
ATOM      1  O   UNL     1     -27.721  -1.530  24.995  1.00  0.00    -0.273 OA
ATOM      2  C   UNL     1     -28.680  -1.384  24.242  1.00  0.00     0.238 C 
ATOM      3  N   UNL     1     -28.534  -1.202  22.878  1.00  0.00    -0.268 N 
ATOM      4  H   UNL     1     -29.307  -1.433  22.251  1.00  0.00     0.191 HD
ENDROOT
BRANCH   2   5
ATOM      5  C   UNL     1     -30.124  -1.375  24.687  1.00  0.00     0.106 C 
BRANCH   5   6
ATOM      6  C   UNL     1     -30.843  -0.108  24.237  1.00  0.00     0.045 C 
BRANCH   6   7
ATOM      7  C   UNL     1     -30.467   1.072  25.097  1.00  0.00    -0.048 A 
ATOM      8  C   UNL     1     -30.315   2.345  24.531  1.00  0.00     0.004 A 
ATOM      9  C   UNL     1     -30.297   0.918  26.480  1.00  0.00     0.004 A 
ATOM     10  C   UNL     1     -29.990   3.441  25.332  1.00  0.00     0.000 A 
ATOM     11  C   UNL     1     -29.972   2.015  27.279  1.00  0.00     0.000 A 
ATOM     12  C   UNL     1     -29.818   3.276  26.705  1.00  0.00     0.000 A 
ENDBRANCH   6   7
ENDBRANCH   5   6
ENDBRANCH   2   5
BRANCH   3  13
ATOM     13  N   UNL     1     -27.254  -1.454  22.343  1.00  0.00    -0.267 N 
ATOM     14  C   UNL     1     -27.030  -1.025  21.050  1.00  0.00     0.241 C 
ATOM     15  O   UNL     1     -27.813  -0.274  20.467  1.00  0.00    -0.273 OA
ATOM     16  H   UNL     1     -26.807  -2.302  22.694  1.00  0.00     0.191 HD
BRANCH  14  17
ATOM     17  C   UNL     1     -25.763  -1.540  20.390  1.00  0.00     0.084 C 
ATOM     18  C   UNL     1     -24.526  -0.769  20.852  1.00  0.00     0.035 C 
ATOM     19  C   UNL     1     -25.576  -3.037  20.636  1.00  0.00     0.035 C 
ATOM     20  C   UNL     1     -23.268  -1.294  20.164  1.00  0.00     0.120 C 
ATOM     21  C   UNL     1     -24.309  -3.548  19.952  1.00  0.00     0.120 C 
ATOM     22  N   UNL     1     -23.157  -2.742  20.361  1.00  0.00    -0.341 N 
BRANCH  22  23
ATOM     23  C   UNL     1     -21.930  -3.267  19.923  1.00  0.00     0.225 A 
ATOM     24  N   UNL     1     -21.679  -3.327  18.603  1.00  0.00    -0.221 NA
ATOM     25  N   UNL     1     -21.030  -3.670  20.838  1.00  0.00    -0.221 NA
ATOM     26  C   UNL     1     -20.484  -3.804  18.206  1.00  0.00     0.117 A 
ATOM     27  C   UNL     1     -19.848  -4.141  20.397  1.00  0.00     0.117 A 
ATOM     28  C   UNL     1     -19.514  -4.233  19.072  1.00  0.00     0.040 A 
ENDBRANCH  22  23
ENDBRANCH  14  17
ENDBRANCH   3  13
TORSDOF 6
ENDMDL
MODEL 5
REMARK VINA RESULT:      -5.4      2.225      2.729
REMARK SMILES O=C(CCc1ccccc1)NNC(=O)C1CCN(c2ncccn2)CC1
REMARK SMILES IDX 1 1 2 2 11 3 3 5 4 6 5 7 6 8 10 9 7 10 9 11 8 12 12 13 13 14
REMARK SMILES IDX 14 15 15 17 16 18 26 19 17 20 25 21 18 22 19 23 20 24 24 25
REMARK SMILES IDX 21 26 23 27 22 28
REMARK H PARENT 11 4 12 16
ROOT
ATOM      1  O   UNL     1     -31.111  -0.411  27.036  1.00  0.00    -0.273 OA
ATOM      2  C   UNL     1     -30.012  -0.457  26.490  1.00  0.00     0.238 C 
ATOM      3  N   UNL     1     -28.967  -1.219  26.983  1.00  0.00    -0.268 N 
ATOM      4  H   UNL     1     -28.218  -1.516  26.355  1.00  0.00     0.191 HD
ENDROOT
BRANCH   2   5
ATOM      5  C   UNL     1     -29.647   0.303  25.235  1.00  0.00     0.106 C 
BRANCH   5   6
ATOM      6  C   UNL     1     -30.712   1.333  24.873  1.00  0.00     0.045 C 
BRANCH   6   7
ATOM      7  C   UNL     1     -30.240   2.736  25.161  1.00  0.00    -0.048 A 
ATOM      8  C   UNL     1     -29.845   3.101  26.455  1.00  0.00     0.004 A 
ATOM      9  C   UNL     1     -30.161   3.684  24.132  1.00  0.00     0.004 A 
ATOM     10  C   UNL     1     -29.386   4.393  26.716  1.00  0.00     0.000 A 
ATOM     11  C   UNL     1     -29.702   4.975  24.395  1.00  0.00     0.000 A 
ATOM     12  C   UNL     1     -29.315   5.330  25.687  1.00  0.00     0.000 A 
ENDBRANCH   6   7
ENDBRANCH   5   6
ENDBRANCH   2   5
BRANCH   3  13
ATOM     13  N   UNL     1     -29.290  -2.154  27.988  1.00  0.00    -0.267 N 
ATOM     14  C   UNL     1     -29.483  -3.458  27.578  1.00  0.00     0.241 C 
ATOM     15  O   UNL     1     -29.182  -3.838  26.446  1.00  0.00    -0.273 OA
ATOM     16  H   UNL     1     -29.822  -1.770  28.769  1.00  0.00     0.191 HD
BRANCH  14  17
ATOM     17  C   UNL     1     -30.097  -4.392  28.606  1.00  0.00     0.084 C 
ATOM     18  C   UNL     1     -29.126  -4.699  29.747  1.00  0.00     0.035 C 
ATOM     19  C   UNL     1     -31.404  -3.828  29.162  1.00  0.00     0.035 C 
ATOM     20  C   UNL     1     -29.759  -5.652  30.760  1.00  0.00     0.120 C 
ATOM     21  C   UNL     1     -32.021  -4.784  30.181  1.00  0.00     0.120 C 
ATOM     22  N   UNL     1     -31.042  -5.114  31.218  1.00  0.00    -0.341 N 
BRANCH  22  23
ATOM     23  C   UNL     1     -31.592  -5.835  32.290  1.00  0.00     0.225 A 
ATOM     24  N   UNL     1     -32.138  -7.042  32.054  1.00  0.00    -0.221 NA
ATOM     25  N   UNL     1     -31.533  -5.311  33.528  1.00  0.00    -0.221 NA
ATOM     26  C   UNL     1     -32.631  -7.730  33.101  1.00  0.00     0.117 A 
ATOM     27  C   UNL     1     -32.038  -6.034  34.546  1.00  0.00     0.117 A 
ATOM     28  C   UNL     1     -32.609  -7.269  34.390  1.00  0.00     0.040 A 
ENDBRANCH  22  23
ENDBRANCH  14  17
ENDBRANCH   3  13
TORSDOF 6
ENDMDL
MODEL 6
REMARK VINA RESULT:      -5.3      7.855     10.962
REMARK SMILES O=C(CCc1ccccc1)NNC(=O)C1CCN(c2ncccn2)CC1
REMARK SMILES IDX 1 1 2 2 11 3 3 5 4 6 5 7 6 8 10 9 7 10 9 11 8 12 12 13 13 14
REMARK SMILES IDX 14 15 15 17 16 18 26 19 17 20 25 21 18 22 19 23 20 24 24 25
REMARK SMILES IDX 21 26 23 27 22 28
REMARK H PARENT 11 4 12 16
ROOT
ATOM      1  O   UNL     1     -29.999   1.165  20.552  1.00  0.00    -0.273 OA
ATOM      2  C   UNL     1     -30.023   0.705  21.691  1.00  0.00     0.238 C 
ATOM      3  N   UNL     1     -29.191  -0.325  22.095  1.00  0.00    -0.268 N 
ATOM      4  H   UNL     1     -28.980  -0.444  23.088  1.00  0.00     0.191 HD
ENDROOT
BRANCH   2   5
ATOM      5  C   UNL     1     -30.949   1.180  22.787  1.00  0.00     0.106 C 
BRANCH   5   6
ATOM      6  C   UNL     1     -30.617   2.603  23.224  1.00  0.00     0.045 C 
BRANCH   6   7
ATOM      7  C   UNL     1     -30.297   2.665  24.697  1.00  0.00    -0.048 A 
ATOM      8  C   UNL     1     -29.894   3.871  25.286  1.00  0.00     0.004 A 
ATOM      9  C   UNL     1     -30.430   1.525  25.501  1.00  0.00     0.004 A 
ATOM     10  C   UNL     1     -29.621   3.933  26.654  1.00  0.00     0.000 A 
ATOM     11  C   UNL     1     -30.156   1.589  26.868  1.00  0.00     0.000 A 
ATOM     12  C   UNL     1     -29.751   2.793  27.444  1.00  0.00     0.000 A 
ENDBRANCH   6   7
ENDBRANCH   5   6
ENDBRANCH   2   5
BRANCH   3  13
ATOM     13  N   UNL     1     -28.127  -0.651  21.230  1.00  0.00    -0.267 N 
ATOM     14  C   UNL     1     -27.693  -1.961  21.252  1.00  0.00     0.241 C 
ATOM     15  O   UNL     1     -28.326  -2.849  21.823  1.00  0.00    -0.273 OA
ATOM     16  H   UNL     1     -27.470   0.112  21.058  1.00  0.00     0.191 HD
BRANCH  14  17
ATOM     17  C   UNL     1     -26.383  -2.238  20.536  1.00  0.00     0.084 C 
ATOM     18  C   UNL     1     -25.247  -1.364  21.068  1.00  0.00     0.035 C 
ATOM     19  C   UNL     1     -26.000  -3.716  20.626  1.00  0.00     0.035 C 
ATOM     20  C   UNL     1     -23.944  -1.649  20.323  1.00  0.00     0.120 C 
ATOM     21  C   UNL     1     -24.691  -3.986  19.886  1.00  0.00     0.120 C 
ATOM     22  N   UNL     1     -23.645  -3.083  20.369  1.00  0.00    -0.341 N 
BRANCH  22  23
ATOM     23  C   UNL     1     -22.369  -3.397  19.874  1.00  0.00     0.225 A 
ATOM     24  N   UNL     1     -21.347  -3.527  20.739  1.00  0.00    -0.221 NA
ATOM     25  N   UNL     1     -22.210  -3.585  18.551  1.00  0.00    -0.221 NA
ATOM     26  C   UNL     1     -20.138  -3.860  20.246  1.00  0.00     0.117 A 
ATOM     27  C   UNL     1     -20.985  -3.916  18.101  1.00  0.00     0.117 A 
ATOM     28  C   UNL     1     -19.894  -4.070  18.915  1.00  0.00     0.040 A 
ENDBRANCH  22  23
ENDBRANCH  14  17
ENDBRANCH   3  13
TORSDOF 6
ENDMDL
MODEL 7
REMARK VINA RESULT:      -5.3      7.742     12.664
REMARK SMILES O=C(CCc1ccccc1)NNC(=O)C1CCN(c2ncccn2)CC1
REMARK SMILES IDX 1 1 2 2 11 3 3 5 4 6 5 7 6 8 10 9 7 10 9 11 8 12 12 13 13 14
REMARK SMILES IDX 14 15 15 17 16 18 26 19 17 20 25 21 18 22 19 23 20 24 24 25
REMARK SMILES IDX 21 26 23 27 22 28
REMARK H PARENT 11 4 12 16
ROOT
ATOM      1  O   UNL     1     -29.735   0.241  21.031  1.00  0.00    -0.273 OA
ATOM      2  C   UNL     1     -29.517  -0.257  22.132  1.00  0.00     0.238 C 
ATOM      3  N   UNL     1     -28.465  -1.127  22.359  1.00  0.00    -0.268 N 
ATOM      4  H   UNL     1     -28.098  -1.242  23.306  1.00  0.00     0.191 HD
ENDROOT
BRANCH   2   5
ATOM      5  C   UNL     1     -30.350  -0.004  23.367  1.00  0.00     0.106 C 
BRANCH   5   6
ATOM      6  C   UNL     1     -30.804   1.450  23.451  1.00  0.00     0.045 C 
BRANCH   6   7
ATOM      7  C   UNL     1     -30.390   2.080  24.757  1.00  0.00    -0.048 A 
ATOM      8  C   UNL     1     -30.112   3.452  24.827  1.00  0.00     0.004 A 
ATOM      9  C   UNL     1     -30.310   1.309  25.924  1.00  0.00     0.004 A 
ATOM     10  C   UNL     1     -29.752   4.039  26.041  1.00  0.00     0.000 A 
ATOM     11  C   UNL     1     -29.950   1.898  27.137  1.00  0.00     0.000 A 
ATOM     12  C   UNL     1     -29.671   3.262  27.195  1.00  0.00     0.000 A 
ENDBRANCH   6   7
ENDBRANCH   5   6
ENDBRANCH   2   5
BRANCH   3  13
ATOM     13  N   UNL     1     -27.491  -1.215  21.343  1.00  0.00    -0.267 N 
ATOM     14  C   UNL     1     -26.176  -1.067  21.736  1.00  0.00     0.241 C 
ATOM     15  O   UNL     1     -25.842  -1.075  22.921  1.00  0.00    -0.273 OA
ATOM     16  H   UNL     1     -27.801  -0.887  20.428  1.00  0.00     0.191 HD
BRANCH  14  17
ATOM     17  C   UNL     1     -25.166  -0.885  20.616  1.00  0.00     0.084 C 
ATOM     18  C   UNL     1     -25.818  -0.336  19.345  1.00  0.00     0.035 C 
ATOM     19  C   UNL     1     -24.009   0.016  21.048  1.00  0.00     0.035 C 
ATOM     20  C   UNL     1     -24.787  -0.177  18.229  1.00  0.00     0.120 C 
ATOM     21  C   UNL     1     -22.992   0.176  19.920  1.00  0.00     0.120 C 
ATOM     22  N   UNL     1     -23.660   0.632  18.701  1.00  0.00    -0.341 N 
BRANCH  22  23
ATOM     23  C   UNL     1     -22.766   0.984  17.677  1.00  0.00     0.225 A 
ATOM     24  N   UNL     1     -22.470   0.077  16.728  1.00  0.00    -0.221 NA
ATOM     25  N   UNL     1     -22.250   2.227  17.658  1.00  0.00    -0.221 NA
ATOM     26  C   UNL     1     -21.635   0.445  15.738  1.00  0.00     0.117 A 
ATOM     27  C   UNL     1     -21.420   2.552  16.650  1.00  0.00     0.117 A 
ATOM     28  C   UNL     1     -21.070   1.689  15.646  1.00  0.00     0.040 A 
ENDBRANCH  22  23
ENDBRANCH  14  17
ENDBRANCH   3  13
TORSDOF 6
ENDMDL
MODEL 8
REMARK VINA RESULT:      -5.2      2.658     10.448
REMARK SMILES O=C(CCc1ccccc1)NNC(=O)C1CCN(c2ncccn2)CC1
REMARK SMILES IDX 1 1 2 2 11 3 3 5 4 6 5 7 6 8 10 9 7 10 9 11 8 12 12 13 13 14
REMARK SMILES IDX 14 15 15 17 16 18 26 19 17 20 25 21 18 22 19 23 20 24 24 25
REMARK SMILES IDX 21 26 23 27 22 28
REMARK H PARENT 11 4 12 16
ROOT
ATOM      1  O   UNL     1     -31.301  -3.921  29.759  1.00  0.00    -0.273 OA
ATOM      2  C   UNL     1     -30.080  -3.997  29.651  1.00  0.00     0.238 C 
ATOM      3  N   UNL     1     -29.387  -3.409  28.607  1.00  0.00    -0.268 N 
ATOM      4  H   UNL     1     -28.396  -3.184  28.721  1.00  0.00     0.191 HD
ENDROOT
BRANCH   2   5
ATOM      5  C   UNL     1     -29.180  -4.733  30.617  1.00  0.00     0.106 C 
BRANCH   5   6
ATOM      6  C   UNL     1     -28.694  -3.820  31.739  1.00  0.00     0.045 C 
BRANCH   6   7
ATOM      7  C   UNL     1     -29.377  -4.143  33.044  1.00  0.00    -0.048 A 
ATOM      8  C   UNL     1     -30.666  -3.660  33.309  1.00  0.00     0.004 A 
ATOM      9  C   UNL     1     -28.745  -4.955  33.995  1.00  0.00     0.004 A 
ATOM     10  C   UNL     1     -31.307  -3.979  34.507  1.00  0.00     0.000 A 
ATOM     11  C   UNL     1     -29.388  -5.272  35.192  1.00  0.00     0.000 A 
ATOM     12  C   UNL     1     -30.668  -4.783  35.448  1.00  0.00     0.000 A 
ENDBRANCH   6   7
ENDBRANCH   5   6
ENDBRANCH   2   5
BRANCH   3  13
ATOM     13  N   UNL     1     -30.105  -2.493  27.812  1.00  0.00    -0.267 N 
ATOM     14  C   UNL     1     -29.373  -1.766  26.895  1.00  0.00     0.241 C 
ATOM     15  O   UNL     1     -28.204  -2.044  26.624  1.00  0.00    -0.273 OA
ATOM     16  H   UNL     1     -30.921  -2.084  28.268  1.00  0.00     0.191 HD
BRANCH  14  17
ATOM     17  C   UNL     1     -30.095  -0.598  26.246  1.00  0.00     0.084 C 
ATOM     18  C   UNL     1     -29.927   0.692  27.051  1.00  0.00     0.035 C 
ATOM     19  C   UNL     1     -29.630  -0.387  24.805  1.00  0.00     0.035 C 
ATOM     20  C   UNL     1     -30.673   1.849  26.388  1.00  0.00     0.120 C 
ATOM     21  C   UNL     1     -30.376   0.779  24.157  1.00  0.00     0.120 C 
ATOM     22  N   UNL     1     -30.256   1.977  24.989  1.00  0.00    -0.341 N 
BRANCH  22  23
ATOM     23  C   UNL     1     -30.753   3.135  24.369  1.00  0.00     0.225 A 
ATOM     24  N   UNL     1     -32.083   3.282  24.230  1.00  0.00    -0.221 NA
ATOM     25  N   UNL     1     -29.886   4.077  23.954  1.00  0.00    -0.221 NA
ATOM     26  C   UNL     1     -32.540   4.414  23.661  1.00  0.00     0.117 A 
ATOM     27  C   UNL     1     -30.386   5.192  23.390  1.00  0.00     0.117 A 
ATOM     28  C   UNL     1     -31.725   5.419  23.214  1.00  0.00     0.040 A 
ENDBRANCH  22  23
ENDBRANCH  14  17
ENDBRANCH   3  13
TORSDOF 6
ENDMDL
MODEL 9
REMARK VINA RESULT:      -5.1      9.401     13.691
REMARK SMILES O=C(CCc1ccccc1)NNC(=O)C1CCN(c2ncccn2)CC1
REMARK SMILES IDX 1 1 2 2 11 3 3 5 4 6 5 7 6 8 10 9 7 10 9 11 8 12 12 13 13 14
REMARK SMILES IDX 14 15 15 17 16 18 26 19 17 20 25 21 18 22 19 23 20 24 24 25
REMARK SMILES IDX 21 26 23 27 22 28
REMARK H PARENT 11 4 12 16
ROOT
ATOM      1  O   UNL     1     -27.310   5.687  27.520  1.00  0.00    -0.273 OA
ATOM      2  C   UNL     1     -28.249   6.226  26.940  1.00  0.00     0.238 C 
ATOM      3  N   UNL     1     -28.151   7.488  26.381  1.00  0.00    -0.268 N 
ATOM      4  H   UNL     1     -28.789   7.759  25.629  1.00  0.00     0.191 HD
ENDROOT
BRANCH   2   5
ATOM      5  C   UNL     1     -29.616   5.606  26.765  1.00  0.00     0.106 C 
BRANCH   5   6
ATOM      6  C   UNL     1     -29.561   4.085  26.867  1.00  0.00     0.045 C 
BRANCH   6   7
ATOM      7  C   UNL     1     -29.938   3.433  25.561  1.00  0.00    -0.048 A 
ATOM      8  C   UNL     1     -30.040   4.195  24.389  1.00  0.00     0.004 A 
ATOM      9  C   UNL     1     -30.160   2.051  25.495  1.00  0.00     0.004 A 
ATOM     10  C   UNL     1     -30.366   3.587  23.176  1.00  0.00     0.000 A 
ATOM     11  C   UNL     1     -30.486   1.445  24.281  1.00  0.00     0.000 A 
ATOM     12  C   UNL     1     -30.589   2.213  23.122  1.00  0.00     0.000 A 
ENDBRANCH   6   7
ENDBRANCH   5   6
ENDBRANCH   2   5
BRANCH   3  13
ATOM     13  N   UNL     1     -26.854   8.028  26.267  1.00  0.00    -0.267 N 
ATOM     14  C   UNL     1     -26.331   8.112  24.993  1.00  0.00     0.241 C 
ATOM     15  O   UNL     1     -27.023   7.936  23.989  1.00  0.00    -0.273 OA
ATOM     16  H   UNL     1     -26.247   7.847  27.068  1.00  0.00     0.191 HD
BRANCH  14  17
ATOM     17  C   UNL     1     -24.848   8.428  24.904  1.00  0.00     0.084 C 
ATOM     18  C   UNL     1     -24.032   7.618  25.913  1.00  0.00     0.035 C 
ATOM     19  C   UNL     1     -24.314   8.203  23.489  1.00  0.00     0.035 C 
ATOM     20  C   UNL     1     -22.547   7.963  25.816  1.00  0.00     0.120 C 
ATOM     21  C   UNL     1     -22.826   8.541  23.408  1.00  0.00     0.120 C 
ATOM     22  N   UNL     1     -22.086   7.805  24.434  1.00  0.00    -0.341 N 
BRANCH  22  23
ATOM     23  C   UNL     1     -20.693   7.917  24.301  1.00  0.00     0.225 A 
ATOM     24  N   UNL     1     -20.126   7.638  23.113  1.00  0.00    -0.221 NA
ATOM     25  N   UNL     1     -19.966   8.326  25.357  1.00  0.00    -0.221 NA
ATOM     26  C   UNL     1     -18.792   7.783  22.998  1.00  0.00     0.117 A 
ATOM     27  C   UNL     1     -18.636   8.457  25.198  1.00  0.00     0.117 A 
ATOM     28  C   UNL     1     -17.983   8.196  24.022  1.00  0.00     0.040 A 
ENDBRANCH  22  23
ENDBRANCH  14  17
ENDBRANCH   3  13
TORSDOF 6
ENDMDL
