MODEL 1
REMARK VINA RESULT:      -5.7      0.000      0.000
REMARK SMILES CC1=CN(Cc2ccc(S(N)(=O)=O)cc2)C(=O)c2cccnc2C1
REMARK SMILES IDX 6 1 7 2 8 3 9 4 14 5 15 6 5 7 4 8 2 9 3 10 24 11 23 12 16 13
REMARK SMILES IDX 22 14 18 15 17 16 21 17 19 18 20 19 1 20 10 21 12 22 13 23
REMARK SMILES IDX 11 24
REMARK H PARENT 11 25 11 26
ROOT
ATOM      1  C   UNL     1     -30.591   2.343  26.183  1.00  0.00    -0.028 A 
ATOM      2  C   UNL     1     -30.405   1.891  24.867  1.00  0.00     0.007 A 
ATOM      3  C   UNL     1     -29.921   0.605  24.621  1.00  0.00     0.022 A 
ATOM      4  C   UNL     1     -29.616  -0.231  25.696  1.00  0.00     0.082 A 
ATOM      5  C   UNL     1     -29.805   0.197  27.012  1.00  0.00     0.022 A 
ATOM      6  C   UNL     1     -30.284   1.486  27.251  1.00  0.00     0.007 A 
ENDROOT
BRANCH   1   7
ATOM      7  C   UNL     1     -31.100   3.745  26.454  1.00  0.00     0.160 C 
BRANCH   7   8
ATOM      8  N   UNL     1     -30.137   4.780  26.037  1.00  0.00    -0.311 N 
ATOM      9  C   UNL     1     -28.176   5.958  26.896  1.00  0.00    -0.051 C 
ATOM     10  C   UNL     1     -28.984   4.891  26.799  1.00  0.00     0.089 C 
ATOM     11  C   UNL     1     -28.462   7.263  26.212  1.00  0.00     0.089 C 
ATOM     12  C   UNL     1     -28.526   7.116  24.725  1.00  0.00     0.057 A 
ATOM     13  C   UNL     1     -30.483   5.505  24.882  1.00  0.00     0.259 C 
ATOM     14  N   UNL     1     -27.623   7.843  24.005  1.00  0.00    -0.260 NA
ATOM     15  C   UNL     1     -29.479   6.299  24.131  1.00  0.00     0.062 A 
ATOM     16  O   UNL     1     -31.602   5.427  24.366  1.00  0.00    -0.269 OA
ATOM     17  C   UNL     1     -27.684   7.762  22.658  1.00  0.00     0.111 A 
ATOM     18  C   UNL     1     -29.521   6.255  22.731  1.00  0.00     0.017 A 
ATOM     19  C   UNL     1     -28.609   6.991  21.981  1.00  0.00     0.021 A 
ATOM     20  C   UNL     1     -26.957   5.938  27.776  1.00  0.00     0.041 C 
ENDBRANCH   7   8
ENDBRANCH   1   7
BRANCH   4  21
ATOM     21  S   UNL     1     -28.999  -1.867  25.402  1.00  0.00     0.238 S 
ATOM     22  O   UNL     1     -29.933  -2.815  25.960  1.00  0.00    -0.207 OA
ATOM     23  O   UNL     1     -28.532  -1.944  24.036  1.00  0.00    -0.207 OA
BRANCH  21  24
ATOM     24  N   UNL     1     -27.609  -1.878  26.352  1.00  0.00    -0.225 NA
ATOM     25  H   UNL     1     -27.355  -0.956  26.704  1.00  0.00     0.137 HD
ATOM     26  H   UNL     1     -26.850  -2.306  25.819  1.00  0.00     0.137 HD
ENDBRANCH  21  24
ENDBRANCH   4  21
TORSDOF 4
ENDMDL
MODEL 2
REMARK VINA RESULT:      -5.5      3.639      7.168
REMARK SMILES CC1=CN(Cc2ccc(S(N)(=O)=O)cc2)C(=O)c2cccnc2C1
REMARK SMILES IDX 6 1 7 2 8 3 9 4 14 5 15 6 5 7 4 8 2 9 3 10 24 11 23 12 16 13
REMARK SMILES IDX 22 14 18 15 17 16 21 17 19 18 20 19 1 20 10 21 12 22 13 23
REMARK SMILES IDX 11 24
REMARK H PARENT 11 25 11 26
ROOT
ATOM      1  C   UNL     1     -30.185   5.120  26.898  1.00  0.00    -0.028 A 
ATOM      2  C   UNL     1     -30.403   6.488  27.128  1.00  0.00     0.007 A 
ATOM      3  C   UNL     1     -29.338   7.334  27.440  1.00  0.00     0.022 A 
ATOM      4  C   UNL     1     -28.048   6.808  27.529  1.00  0.00     0.082 A 
ATOM      5  C   UNL     1     -27.809   5.453  27.294  1.00  0.00     0.022 A 
ATOM      6  C   UNL     1     -28.880   4.612  26.987  1.00  0.00     0.007 A 
ENDROOT
BRANCH   1   7
ATOM      7  C   UNL     1     -31.342   4.196  26.576  1.00  0.00     0.160 C 
BRANCH   7   8
ATOM      8  N   UNL     1     -30.948   3.101  25.671  1.00  0.00    -0.311 N 
ATOM      9  C   UNL     1     -30.654   2.671  23.283  1.00  0.00    -0.051 C 
ATOM     10  C   UNL     1     -30.641   3.461  24.367  1.00  0.00     0.089 C 
ATOM     11  C   UNL     1     -31.089   1.235  23.325  1.00  0.00     0.089 C 
ATOM     12  C   UNL     1     -30.234   0.415  24.239  1.00  0.00     0.057 A 
ATOM     13  C   UNL     1     -30.885   1.821  26.251  1.00  0.00     0.259 C 
ATOM     14  N   UNL     1     -29.565  -0.629  23.668  1.00  0.00    -0.260 NA
ATOM     15  C   UNL     1     -30.163   0.703  25.596  1.00  0.00     0.062 A 
ATOM     16  O   UNL     1     -31.321   1.590  27.383  1.00  0.00    -0.269 OA
ATOM     17  C   UNL     1     -28.818  -1.412  24.476  1.00  0.00     0.111 A 
ATOM     18  C   UNL     1     -29.389  -0.143  26.403  1.00  0.00     0.017 A 
ATOM     19  C   UNL     1     -28.702  -1.212  25.839  1.00  0.00     0.021 A 
ATOM     20  C   UNL     1     -30.306   3.205  21.921  1.00  0.00     0.041 C 
ENDBRANCH   7   8
ENDBRANCH   1   7
BRANCH   4  21
ATOM     21  S   UNL     1     -26.683   7.868  27.926  1.00  0.00     0.238 S 
ATOM     22  O   UNL     1     -25.494   7.335  27.305  1.00  0.00    -0.207 OA
ATOM     23  O   UNL     1     -27.101   9.241  27.758  1.00  0.00    -0.207 OA
BRANCH  21  24
ATOM     24  N   UNL     1     -26.553   7.640  29.590  1.00  0.00    -0.225 NA
ATOM     25  H   UNL     1     -25.963   8.335  30.046  1.00  0.00     0.137 HD
ATOM     26  H   UNL     1     -26.229   6.688  29.766  1.00  0.00     0.137 HD
ENDBRANCH  21  24
ENDBRANCH   4  21
TORSDOF 4
ENDMDL
MODEL 3
REMARK VINA RESULT:      -5.2      3.985      7.416
REMARK SMILES CC1=CN(Cc2ccc(S(N)(=O)=O)cc2)C(=O)c2cccnc2C1
REMARK SMILES IDX 6 1 7 2 8 3 9 4 14 5 15 6 5 7 4 8 2 9 3 10 24 11 23 12 16 13
REMARK SMILES IDX 22 14 18 15 17 16 21 17 19 18 20 19 1 20 10 21 12 22 13 23
REMARK SMILES IDX 11 24
REMARK H PARENT 11 25 11 26
ROOT
ATOM      1  C   UNL     1     -30.071   6.817  26.650  1.00  0.00    -0.028 A 
ATOM      2  C   UNL     1     -30.628   7.734  27.556  1.00  0.00     0.007 A 
ATOM      3  C   UNL     1     -29.807   8.493  28.391  1.00  0.00     0.022 A 
ATOM      4  C   UNL     1     -28.422   8.331  28.324  1.00  0.00     0.082 A 
ATOM      5  C   UNL     1     -27.849   7.432  27.422  1.00  0.00     0.022 A 
ATOM      6  C   UNL     1     -28.676   6.672  26.594  1.00  0.00     0.007 A 
ENDROOT
BRANCH   1   7
ATOM      7  C   UNL     1     -30.960   5.978  25.754  1.00  0.00     0.160 C 
BRANCH   7   8
ATOM      8  N   UNL     1     -30.853   4.538  26.049  1.00  0.00    -0.311 N 
ATOM      9  C   UNL     1     -31.139   2.991  27.919  1.00  0.00    -0.051 C 
ATOM     10  C   UNL     1     -31.430   4.107  27.235  1.00  0.00     0.089 C 
ATOM     11  C   UNL     1     -30.050   2.043  27.511  1.00  0.00     0.089 C 
ATOM     12  C   UNL     1     -30.288   1.464  26.152  1.00  0.00     0.057 A 
ATOM     13  C   UNL     1     -30.214   3.760  25.066  1.00  0.00     0.259 C 
ATOM     14  N   UNL     1     -30.408   0.106  26.084  1.00  0.00    -0.260 NA
ATOM     15  C   UNL     1     -30.353   2.283  25.031  1.00  0.00     0.062 A 
ATOM     16  O   UNL     1     -29.607   4.266  24.118  1.00  0.00    -0.269 OA
ATOM     17  C   UNL     1     -30.583  -0.447  24.865  1.00  0.00     0.111 A 
ATOM     18  C   UNL     1     -30.519   1.668  23.782  1.00  0.00     0.017 A 
ATOM     19  C   UNL     1     -30.642   0.285  23.695  1.00  0.00     0.021 A 
ATOM     20  C   UNL     1     -31.844   2.656  29.205  1.00  0.00     0.041 C 
ENDBRANCH   7   8
ENDBRANCH   1   7
BRANCH   4  21
ATOM     21  S   UNL     1     -27.364   9.286  29.378  1.00  0.00     0.238 S 
ATOM     22  O   UNL     1     -26.375   9.944  28.559  1.00  0.00    -0.207 OA
ATOM     23  O   UNL     1     -28.184   9.997  30.332  1.00  0.00    -0.207 OA
BRANCH  21  24
ATOM     24  N   UNL     1     -26.593   8.079  30.264  1.00  0.00    -0.225 NA
ATOM     25  H   UNL     1     -27.082   7.185  30.236  1.00  0.00     0.137 HD
ATOM     26  H   UNL     1     -26.455   8.410  31.220  1.00  0.00     0.137 HD
ENDBRANCH  21  24
ENDBRANCH   4  21
TORSDOF 4
ENDMDL
MODEL 4
REMARK VINA RESULT:      -5.2      3.923      7.616
REMARK SMILES CC1=CN(Cc2ccc(S(N)(=O)=O)cc2)C(=O)c2cccnc2C1
REMARK SMILES IDX 6 1 7 2 8 3 9 4 14 5 15 6 5 7 4 8 2 9 3 10 24 11 23 12 16 13
REMARK SMILES IDX 22 14 18 15 17 16 21 17 19 18 20 19 1 20 10 21 12 22 13 23
REMARK SMILES IDX 11 24
REMARK H PARENT 11 25 11 26
ROOT
ATOM      1  C   UNL     1     -29.253   5.120  25.736  1.00  0.00    -0.028 A 
ATOM      2  C   UNL     1     -28.551   4.950  26.939  1.00  0.00     0.007 A 
ATOM      3  C   UNL     1     -27.657   5.926  27.384  1.00  0.00     0.022 A 
ATOM      4  C   UNL     1     -27.460   7.075  26.617  1.00  0.00     0.082 A 
ATOM      5  C   UNL     1     -28.157   7.268  25.423  1.00  0.00     0.022 A 
ATOM      6  C   UNL     1     -29.045   6.286  24.982  1.00  0.00     0.007 A 
ENDROOT
BRANCH   1   7
ATOM      7  C   UNL     1     -30.211   4.055  25.242  1.00  0.00     0.160 C 
BRANCH   7   8
ATOM      8  N   UNL     1     -31.129   3.595  26.299  1.00  0.00    -0.311 N 
ATOM      9  C   UNL     1     -32.739   4.505  27.898  1.00  0.00    -0.051 C 
ATOM     10  C   UNL     1     -32.082   4.508  26.729  1.00  0.00     0.089 C 
ATOM     11  C   UNL     1     -32.470   3.503  28.982  1.00  0.00     0.089 C 
ATOM     12  C   UNL     1     -32.732   2.101  28.530  1.00  0.00     0.057 A 
ATOM     13  C   UNL     1     -30.959   2.263  26.718  1.00  0.00     0.259 C 
ATOM     14  N   UNL     1     -33.687   1.411  29.219  1.00  0.00    -0.260 NA
ATOM     15  C   UNL     1     -32.011   1.546  27.481  1.00  0.00     0.062 A 
ATOM     16  O   UNL     1     -29.986   1.584  26.376  1.00  0.00    -0.269 OA
ATOM     17  C   UNL     1     -33.915   0.129  28.859  1.00  0.00     0.111 A 
ATOM     18  C   UNL     1     -32.267   0.208  27.149  1.00  0.00     0.017 A 
ATOM     19  C   UNL     1     -33.235  -0.512  27.842  1.00  0.00     0.021 A 
ATOM     20  C   UNL     1     -33.743   5.573  28.233  1.00  0.00     0.041 C 
ENDBRANCH   7   8
ENDBRANCH   1   7
BRANCH   4  21
ATOM     21  S   UNL     1     -26.327   8.324  27.165  1.00  0.00     0.238 S 
ATOM     22  O   UNL     1     -26.559   9.522  26.396  1.00  0.00    -0.207 OA
ATOM     23  O   UNL     1     -26.299   8.319  28.610  1.00  0.00    -0.207 OA
BRANCH  21  24
ATOM     24  N   UNL     1     -24.850   7.672  26.687  1.00  0.00    -0.225 NA
ATOM     25  H   UNL     1     -24.943   6.781  26.200  1.00  0.00     0.137 HD
ATOM     26  H   UNL     1     -24.243   7.599  27.504  1.00  0.00     0.137 HD
ENDBRANCH  21  24
ENDBRANCH   4  21
TORSDOF 4
ENDMDL
MODEL 5
REMARK VINA RESULT:      -4.9      2.361      3.839
REMARK SMILES CC1=CN(Cc2ccc(S(N)(=O)=O)cc2)C(=O)c2cccnc2C1
REMARK SMILES IDX 6 1 7 2 8 3 9 4 14 5 15 6 5 7 4 8 2 9 3 10 24 11 23 12 16 13
REMARK SMILES IDX 22 14 18 15 17 16 21 17 19 18 20 19 1 20 10 21 12 22 13 23
REMARK SMILES IDX 11 24
REMARK H PARENT 11 25 11 26
ROOT
ATOM      1  C   UNL     1     -31.147   0.266  27.116  1.00  0.00    -0.028 A 
ATOM      2  C   UNL     1     -29.792  -0.039  26.914  1.00  0.00     0.007 A 
ATOM      3  C   UNL     1     -29.357  -1.365  26.908  1.00  0.00     0.022 A 
ATOM      4  C   UNL     1     -30.280  -2.392  27.111  1.00  0.00     0.082 A 
ATOM      5  C   UNL     1     -31.634  -2.109  27.303  1.00  0.00     0.022 A 
ATOM      6  C   UNL     1     -32.062  -0.780  27.313  1.00  0.00     0.007 A 
ENDROOT
BRANCH   1   7
ATOM      7  C   UNL     1     -31.621   1.705  27.141  1.00  0.00     0.160 C 
BRANCH   7   8
ATOM      8  N   UNL     1     -31.270   2.431  25.906  1.00  0.00    -0.311 N 
ATOM      9  C   UNL     1     -31.733   2.363  23.508  1.00  0.00    -0.051 C 
ATOM     10  C   UNL     1     -32.058   2.173  24.795  1.00  0.00     0.089 C 
ATOM     11  C   UNL     1     -30.379   2.841  23.071  1.00  0.00     0.089 C 
ATOM     12  C   UNL     1     -30.052   4.191  23.627  1.00  0.00     0.057 A 
ATOM     13  C   UNL     1     -30.199   3.337  26.015  1.00  0.00     0.259 C 
ATOM     14  N   UNL     1     -29.822   5.181  22.716  1.00  0.00    -0.260 NA
ATOM     15  C   UNL     1     -29.967   4.393  24.998  1.00  0.00     0.062 A 
ATOM     16  O   UNL     1     -29.472   3.381  27.011  1.00  0.00    -0.269 OA
ATOM     17  C   UNL     1     -29.484   6.401  23.190  1.00  0.00     0.111 A 
ATOM     18  C   UNL     1     -29.598   5.669  25.448  1.00  0.00     0.017 A 
ATOM     19  C   UNL     1     -29.358   6.690  24.535  1.00  0.00     0.021 A 
ATOM     20  C   UNL     1     -32.692   2.025  22.400  1.00  0.00     0.041 C 
ENDBRANCH   7   8
ENDBRANCH   1   7
BRANCH   4  21
ATOM     21  S   UNL     1     -29.744  -4.081  27.108  1.00  0.00     0.238 S 
ATOM     22  O   UNL     1     -29.827  -4.585  25.758  1.00  0.00    -0.207 OA
ATOM     23  O   UNL     1     -28.545  -4.186  27.906  1.00  0.00    -0.207 OA
BRANCH  21  24
ATOM     24  N   UNL     1     -30.954  -4.820  28.018  1.00  0.00    -0.225 NA
ATOM     25  H   UNL     1     -30.746  -5.790  28.250  1.00  0.00     0.137 HD
ATOM     26  H   UNL     1     -31.841  -4.727  27.522  1.00  0.00     0.137 HD
ENDBRANCH  21  24
ENDBRANCH   4  21
TORSDOF 4
ENDMDL
MODEL 6
REMARK VINA RESULT:      -4.9      3.938      6.057
REMARK SMILES CC1=CN(Cc2ccc(S(N)(=O)=O)cc2)C(=O)c2cccnc2C1
REMARK SMILES IDX 6 1 7 2 8 3 9 4 14 5 15 6 5 7 4 8 2 9 3 10 24 11 23 12 16 13
REMARK SMILES IDX 22 14 18 15 17 16 21 17 19 18 20 19 1 20 10 21 12 22 13 23
REMARK SMILES IDX 11 24
REMARK H PARENT 11 25 11 26
ROOT
ATOM      1  C   UNL     1     -28.923  -0.649  21.713  1.00  0.00    -0.028 A 
ATOM      2  C   UNL     1     -27.855  -1.380  22.259  1.00  0.00     0.007 A 
ATOM      3  C   UNL     1     -26.616  -1.411  21.618  1.00  0.00     0.022 A 
ATOM      4  C   UNL     1     -26.444  -0.712  20.422  1.00  0.00     0.082 A 
ATOM      5  C   UNL     1     -27.491   0.029  19.869  1.00  0.00     0.022 A 
ATOM      6  C   UNL     1     -28.728   0.052  20.513  1.00  0.00     0.007 A 
ENDROOT
BRANCH   1   7
ATOM      7  C   UNL     1     -30.275  -0.627  22.397  1.00  0.00     0.160 C 
BRANCH   7   8
ATOM      8  N   UNL     1     -30.236   0.081  23.690  1.00  0.00    -0.311 N 
ATOM      9  C   UNL     1     -29.983  -0.400  26.073  1.00  0.00    -0.051 C 
ATOM     10  C   UNL     1     -29.755  -0.640  24.773  1.00  0.00     0.089 C 
ATOM     11  C   UNL     1     -30.889   0.695  26.553  1.00  0.00     0.089 C 
ATOM     12  C   UNL     1     -30.420   2.047  26.115  1.00  0.00     0.057 A 
ATOM     13  C   UNL     1     -30.650   1.425  23.662  1.00  0.00     0.259 C 
ATOM     14  N   UNL     1     -30.124   2.937  27.106  1.00  0.00    -0.260 NA
ATOM     15  C   UNL     1     -30.325   2.363  24.766  1.00  0.00     0.062 A 
ATOM     16  O   UNL     1     -31.199   1.925  22.676  1.00  0.00    -0.269 OA
ATOM     17  C   UNL     1     -29.737   4.178  26.739  1.00  0.00     0.111 A 
ATOM     18  C   UNL     1     -29.936   3.667  24.426  1.00  0.00     0.017 A 
ATOM     19  C   UNL     1     -29.632   4.587  25.424  1.00  0.00     0.021 A 
ATOM     20  C   UNL     1     -29.400  -1.279  27.144  1.00  0.00     0.041 C 
ENDBRANCH   7   8
ENDBRANCH   1   7
BRANCH   4  21
ATOM     21  S   UNL     1     -24.877  -0.742  19.593  1.00  0.00     0.238 S 
ATOM     22  O   UNL     1     -24.513  -2.118  19.353  1.00  0.00    -0.207 OA
ATOM     23  O   UNL     1     -24.889   0.255  18.547  1.00  0.00    -0.207 OA
BRANCH  21  24
ATOM     24  N   UNL     1     -23.855  -0.130  20.784  1.00  0.00    -0.225 NA
ATOM     25  H   UNL     1     -24.298   0.579  21.368  1.00  0.00     0.137 HD
ATOM     26  H   UNL     1     -23.004   0.218  20.339  1.00  0.00     0.137 HD
ENDBRANCH  21  24
ENDBRANCH   4  21
TORSDOF 4
ENDMDL
MODEL 7
REMARK VINA RESULT:      -4.8      5.004      7.294
REMARK SMILES CC1=CN(Cc2ccc(S(N)(=O)=O)cc2)C(=O)c2cccnc2C1
REMARK SMILES IDX 6 1 7 2 8 3 9 4 14 5 15 6 5 7 4 8 2 9 3 10 24 11 23 12 16 13
REMARK SMILES IDX 22 14 18 15 17 16 21 17 19 18 20 19 1 20 10 21 12 22 13 23
REMARK SMILES IDX 11 24
REMARK H PARENT 11 25 11 26
ROOT
ATOM      1  C   UNL     1     -27.305  -1.607  20.860  1.00  0.00    -0.028 A 
ATOM      2  C   UNL     1     -26.464  -2.730  20.836  1.00  0.00     0.007 A 
ATOM      3  C   UNL     1     -25.119  -2.602  20.484  1.00  0.00     0.022 A 
ATOM      4  C   UNL     1     -24.614  -1.345  20.148  1.00  0.00     0.082 A 
ATOM      5  C   UNL     1     -25.433  -0.214  20.176  1.00  0.00     0.022 A 
ATOM      6  C   UNL     1     -26.777  -0.350  20.525  1.00  0.00     0.007 A 
ENDROOT
BRANCH   1   7
ATOM      7  C   UNL     1     -28.769  -1.744  21.226  1.00  0.00     0.160 C 
BRANCH   7   8
ATOM      8  N   UNL     1     -29.102  -1.038  22.476  1.00  0.00    -0.311 N 
ATOM      9  C   UNL     1     -28.765  -1.254  24.887  1.00  0.00    -0.051 C 
ATOM     10  C   UNL     1     -28.399  -1.424  23.608  1.00  0.00     0.089 C 
ATOM     11  C   UNL     1     -30.082  -0.656  25.286  1.00  0.00     0.089 C 
ATOM     12  C   UNL     1     -30.241   0.743  24.780  1.00  0.00     0.057 A 
ATOM     13  C   UNL     1     -30.067  -0.020  22.364  1.00  0.00     0.259 C 
ATOM     14  N   UNL     1     -30.411   1.714  25.725  1.00  0.00    -0.260 NA
ATOM     15  C   UNL     1     -30.238   1.011  23.417  1.00  0.00     0.062 A 
ATOM     16  O   UNL     1     -30.737   0.141  21.339  1.00  0.00    -0.269 OA
ATOM     17  C   UNL     1     -30.597   2.980  25.294  1.00  0.00     0.111 A 
ATOM     18  C   UNL     1     -30.451   2.336  23.011  1.00  0.00     0.017 A 
ATOM     19  C   UNL     1     -30.628   3.337  23.960  1.00  0.00     0.021 A 
ATOM     20  C   UNL     1     -27.899  -1.737  26.018  1.00  0.00     0.041 C 
ENDBRANCH   7   8
ENDBRANCH   1   7
BRANCH   4  21
ATOM     21  S   UNL     1     -22.910  -1.164  19.696  1.00  0.00     0.238 S 
ATOM     22  O   UNL     1     -22.503   0.191  19.980  1.00  0.00    -0.207 OA
ATOM     23  O   UNL     1     -22.180  -2.314  20.180  1.00  0.00    -0.207 OA
BRANCH  21  24
ATOM     24  N   UNL     1     -22.983  -1.351  18.024  1.00  0.00    -0.225 NA
ATOM     25  H   UNL     1     -22.324  -0.756  17.524  1.00  0.00     0.137 HD
ATOM     26  H   UNL     1     -23.945  -1.198  17.718  1.00  0.00     0.137 HD
ENDBRANCH  21  24
ENDBRANCH   4  21
TORSDOF 4
ENDMDL
MODEL 8
REMARK VINA RESULT:      -4.8      3.852      7.951
REMARK SMILES CC1=CN(Cc2ccc(S(N)(=O)=O)cc2)C(=O)c2cccnc2C1
REMARK SMILES IDX 6 1 7 2 8 3 9 4 14 5 15 6 5 7 4 8 2 9 3 10 24 11 23 12 16 13
REMARK SMILES IDX 22 14 18 15 17 16 21 17 19 18 20 19 1 20 10 21 12 22 13 23
REMARK SMILES IDX 11 24
REMARK H PARENT 11 25 11 26
ROOT
ATOM      1  C   UNL     1     -30.303   1.787  25.507  1.00  0.00    -0.028 A 
ATOM      2  C   UNL     1     -30.279   2.784  24.519  1.00  0.00     0.007 A 
ATOM      3  C   UNL     1     -29.890   4.086  24.835  1.00  0.00     0.022 A 
ATOM      4  C   UNL     1     -29.529   4.395  26.148  1.00  0.00     0.082 A 
ATOM      5  C   UNL     1     -29.537   3.414  27.142  1.00  0.00     0.022 A 
ATOM      6  C   UNL     1     -29.932   2.115  26.819  1.00  0.00     0.007 A 
ENDROOT
BRANCH   1   7
ATOM      7  C   UNL     1     -30.742   0.375  25.170  1.00  0.00     0.160 C 
BRANCH   7   8
ATOM      8  N   UNL     1     -31.419  -0.285  26.301  1.00  0.00    -0.311 N 
ATOM      9  C   UNL     1     -31.165  -2.243  27.741  1.00  0.00    -0.051 C 
ATOM     10  C   UNL     1     -30.686  -1.247  26.981  1.00  0.00     0.089 C 
ATOM     11  C   UNL     1     -32.633  -2.505  27.914  1.00  0.00     0.089 C 
ATOM     12  C   UNL     1     -33.344  -1.341  28.527  1.00  0.00     0.057 A 
ATOM     13  C   UNL     1     -32.718   0.175  26.587  1.00  0.00     0.259 C 
ATOM     14  N   UNL     1     -33.969  -1.572  29.718  1.00  0.00    -0.260 NA
ATOM     15  C   UNL     1     -33.375  -0.109  27.887  1.00  0.00     0.062 A 
ATOM     16  O   UNL     1     -33.330   0.931  25.828  1.00  0.00    -0.269 OA
ATOM     17  C   UNL     1     -34.654  -0.550  30.275  1.00  0.00     0.111 A 
ATOM     18  C   UNL     1     -34.110   0.922  28.490  1.00  0.00     0.017 A 
ATOM     19  C   UNL     1     -34.755   0.704  29.703  1.00  0.00     0.021 A 
ATOM     20  C   UNL     1     -30.245  -3.224  28.414  1.00  0.00     0.041 C 
ENDBRANCH   7   8
ENDBRANCH   1   7
BRANCH   4  21
ATOM     21  S   UNL     1     -29.034   6.045  26.567  1.00  0.00     0.238 S 
ATOM     22  O   UNL     1     -28.618   6.718  25.361  1.00  0.00    -0.207 OA
ATOM     23  O   UNL     1     -30.011   6.603  27.474  1.00  0.00    -0.207 OA
BRANCH  21  24
ATOM     24  N   UNL     1     -27.666   5.757  27.506  1.00  0.00    -0.225 NA
ATOM     25  H   UNL     1     -26.794   5.959  27.018  1.00  0.00     0.137 HD
ATOM     26  H   UNL     1     -27.699   4.797  27.849  1.00  0.00     0.137 HD
ENDBRANCH  21  24
ENDBRANCH   4  21
TORSDOF 4
ENDMDL
MODEL 9
REMARK VINA RESULT:      -4.8      5.276      7.175
REMARK SMILES CC1=CN(Cc2ccc(S(N)(=O)=O)cc2)C(=O)c2cccnc2C1
REMARK SMILES IDX 6 1 7 2 8 3 9 4 14 5 15 6 5 7 4 8 2 9 3 10 24 11 23 12 16 13
REMARK SMILES IDX 22 14 18 15 17 16 21 17 19 18 20 19 1 20 10 21 12 22 13 23
REMARK SMILES IDX 11 24
REMARK H PARENT 11 25 11 26
ROOT
ATOM      1  C   UNL     1     -29.352  -0.811  22.089  1.00  0.00    -0.028 A 
ATOM      2  C   UNL     1     -30.330   0.051  22.609  1.00  0.00     0.007 A 
ATOM      3  C   UNL     1     -30.486   0.197  23.988  1.00  0.00     0.022 A 
ATOM      4  C   UNL     1     -29.664  -0.527  24.852  1.00  0.00     0.082 A 
ATOM      5  C   UNL     1     -28.678  -1.381  24.354  1.00  0.00     0.022 A 
ATOM      6  C   UNL     1     -28.531  -1.526  22.974  1.00  0.00     0.007 A 
ENDROOT
BRANCH   1   7
ATOM      7  C   UNL     1     -29.191  -0.985  20.592  1.00  0.00     0.160 C 
BRANCH   7   8
ATOM      8  N   UNL     1     -28.051  -0.216  20.059  1.00  0.00    -0.311 N 
ATOM      9  C   UNL     1     -27.595   1.909  18.942  1.00  0.00    -0.051 C 
ATOM     10  C   UNL     1     -28.289   1.121  19.777  1.00  0.00     0.089 C 
ATOM     11  C   UNL     1     -26.453   1.408  18.108  1.00  0.00     0.089 C 
ATOM     12  C   UNL     1     -25.338   0.868  18.946  1.00  0.00     0.057 A 
ATOM     13  C   UNL     1     -26.840  -0.922  19.942  1.00  0.00     0.259 C 
ATOM     14  N   UNL     1     -24.127   1.485  18.816  1.00  0.00    -0.260 NA
ATOM     15  C   UNL     1     -25.542  -0.220  19.785  1.00  0.00     0.062 A 
ATOM     16  O   UNL     1     -26.776  -2.147  20.082  1.00  0.00    -0.269 OA
ATOM     17  C   UNL     1     -23.093   0.992  19.530  1.00  0.00     0.111 A 
ATOM     18  C   UNL     1     -24.439  -0.712  20.497  1.00  0.00     0.017 A 
ATOM     19  C   UNL     1     -23.197  -0.097  20.375  1.00  0.00     0.021 A 
ATOM     20  C   UNL     1     -27.978   3.347  18.726  1.00  0.00     0.041 C 
ENDBRANCH   7   8
ENDBRANCH   1   7
BRANCH   4  21
ATOM     21  S   UNL     1     -29.850  -0.355  26.607  1.00  0.00     0.238 S 
ATOM     22  O   UNL     1     -29.806   1.050  26.936  1.00  0.00    -0.207 OA
ATOM     23  O   UNL     1     -30.917  -1.225  27.045  1.00  0.00    -0.207 OA
BRANCH  21  24
ATOM     24  N   UNL     1     -28.432  -1.069  27.168  1.00  0.00    -0.225 NA
ATOM     25  H   UNL     1     -27.806  -1.362  26.418  1.00  0.00     0.137 HD
ATOM     26  H   UNL     1     -28.676  -1.844  27.786  1.00  0.00     0.137 HD
ENDBRANCH  21  24
ENDBRANCH   4  21
TORSDOF 4
ENDMDL
