MODEL 1
REMARK VINA RESULT:      -5.0      0.000      0.000
REMARK SMILES CN1CCN(S(=O)(=O)c2ccc(NC(=O)c3ccco3)cc2)CC1
REMARK SMILES IDX 9 1 10 2 11 3 12 4 21 5 22 6 6 7 7 8 8 9 5 10 2 11 3 12
REMARK SMILES IDX 24 13 4 14 23 15 1 16 13 17 14 18 15 19 16 21 17 22 20 23
REMARK SMILES IDX 18 24 19 25
REMARK H PARENT 13 20
ROOT
ATOM      1  C   UNL     1     -29.934   3.642  25.699  1.00  0.00     0.082 A 
ATOM      2  C   UNL     1     -29.824   3.308  27.050  1.00  0.00     0.024 A 
ATOM      3  C   UNL     1     -29.939   1.970  27.442  1.00  0.00     0.027 A 
ATOM      4  C   UNL     1     -30.179   0.962  26.498  1.00  0.00     0.041 A 
ATOM      5  C   UNL     1     -30.316   1.317  25.153  1.00  0.00     0.027 A 
ATOM      6  C   UNL     1     -30.205   2.654  24.753  1.00  0.00     0.024 A 
ENDROOT
BRANCH   1   7
ATOM      7  S   UNL     1     -29.827   5.347  25.196  1.00  0.00     0.243 S 
ATOM      8  O   UNL     1     -28.730   5.948  25.924  1.00  0.00    -0.207 OA
ATOM      9  O   UNL     1     -29.865   5.370  23.748  1.00  0.00    -0.207 OA
BRANCH   7  10
ATOM     10  N   UNL     1     -31.269   6.021  25.765  1.00  0.00    -0.195 NA
ATOM     11  N   UNL     1     -33.551   6.043  27.718  1.00  0.00    -0.304 NA
ATOM     12  C   UNL     1     -33.263   4.916  26.807  1.00  0.00     0.101 C 
ATOM     13  C   UNL     1     -32.633   7.180  27.492  1.00  0.00     0.101 C 
ATOM     14  C   UNL     1     -32.542   5.297  25.501  1.00  0.00     0.118 C 
ATOM     15  C   UNL     1     -31.221   6.735  27.071  1.00  0.00     0.118 C 
ATOM     16  C   UNL     1     -34.941   6.481  27.623  1.00  0.00     0.105 C 
ENDBRANCH   7  10
ENDBRANCH   1   7
BRANCH   4  17
ATOM     17  N   UNL     1     -30.281  -0.358  26.986  1.00  0.00    -0.319 N 
ATOM     18  C   UNL     1     -29.293  -1.337  27.015  1.00  0.00     0.291 C 
ATOM     19  O   UNL     1     -28.140  -1.160  26.631  1.00  0.00    -0.265 OA
ATOM     20  H   UNL     1     -31.175  -0.609  27.379  1.00  0.00     0.170 HD
BRANCH  18  21
ATOM     21  C   UNL     1     -29.739  -2.613  27.561  1.00  0.00     0.191 A 
ATOM     22  C   UNL     1     -30.920  -3.051  28.143  1.00  0.00     0.056 A 
ATOM     23  O   UNL     1     -28.855  -3.664  27.525  1.00  0.00    -0.459 OA
ATOM     24  C   UNL     1     -30.740  -4.418  28.473  1.00  0.00     0.043 A 
ATOM     25  C   UNL     1     -29.466  -4.740  28.076  1.00  0.00     0.196 A 
ENDBRANCH  18  21
ENDBRANCH   4  17
TORSDOF 4
ENDMDL
MODEL 2
REMARK VINA RESULT:      -5.0      3.566      8.825
REMARK SMILES CN1CCN(S(=O)(=O)c2ccc(NC(=O)c3ccco3)cc2)CC1
REMARK SMILES IDX 9 1 10 2 11 3 12 4 21 5 22 6 6 7 7 8 8 9 5 10 2 11 3 12
REMARK SMILES IDX 24 13 4 14 23 15 1 16 13 17 14 18 15 19 16 21 17 22 20 23
REMARK SMILES IDX 18 24 19 25
REMARK H PARENT 13 20
ROOT
ATOM      1  C   UNL     1     -29.941  -2.523  27.426  1.00  0.00     0.082 A 
ATOM      2  C   UNL     1     -28.826  -2.058  26.726  1.00  0.00     0.024 A 
ATOM      3  C   UNL     1     -28.875  -0.807  26.102  1.00  0.00     0.027 A 
ATOM      4  C   UNL     1     -30.034  -0.020  26.158  1.00  0.00     0.041 A 
ATOM      5  C   UNL     1     -31.152  -0.513  26.838  1.00  0.00     0.027 A 
ATOM      6  C   UNL     1     -31.112  -1.766  27.461  1.00  0.00     0.024 A 
ENDROOT
BRANCH   1   7
ATOM      7  S   UNL     1     -29.901  -4.132  28.190  1.00  0.00     0.243 S 
ATOM      8  O   UNL     1     -30.951  -4.925  27.588  1.00  0.00    -0.207 OA
ATOM      9  O   UNL     1     -28.524  -4.580  28.175  1.00  0.00    -0.207 OA
BRANCH   7  10
ATOM     10  N   UNL     1     -30.331  -3.820  29.795  1.00  0.00    -0.195 NA
ATOM     11  N   UNL     1     -30.998  -4.792  32.558  1.00  0.00    -0.304 NA
ATOM     12  C   UNL     1     -31.788  -5.133  31.357  1.00  0.00     0.101 C 
ATOM     13  C   UNL     1     -29.897  -3.857  32.244  1.00  0.00     0.101 C 
ATOM     14  C   UNL     1     -31.730  -4.097  30.220  1.00  0.00     0.118 C 
ATOM     15  C   UNL     1     -29.303  -4.079  30.840  1.00  0.00     0.118 C 
ATOM     16  C   UNL     1     -31.834  -4.257  33.629  1.00  0.00     0.105 C 
ENDBRANCH   7  10
ENDBRANCH   1   7
BRANCH   4  17
ATOM     17  N   UNL     1     -29.991   1.227  25.499  1.00  0.00    -0.319 N 
ATOM     18  C   UNL     1     -29.992   2.495  26.070  1.00  0.00     0.291 C 
ATOM     19  O   UNL     1     -29.999   2.703  27.280  1.00  0.00    -0.265 OA
ATOM     20  H   UNL     1     -29.930   1.186  24.493  1.00  0.00     0.170 HD
BRANCH  18  21
ATOM     21  C   UNL     1     -29.971   3.583  25.098  1.00  0.00     0.191 A 
ATOM     22  C   UNL     1     -30.255   3.668  23.743  1.00  0.00     0.056 A 
ATOM     23  O   UNL     1     -29.603   4.827  25.546  1.00  0.00    -0.459 OA
ATOM     24  C   UNL     1     -30.048   5.017  23.358  1.00  0.00     0.043 A 
ATOM     25  C   UNL     1     -29.653   5.679  24.493  1.00  0.00     0.196 A 
ENDBRANCH  18  21
ENDBRANCH   4  17
TORSDOF 4
ENDMDL
MODEL 3
REMARK VINA RESULT:      -4.8      1.950      2.896
REMARK SMILES CN1CCN(S(=O)(=O)c2ccc(NC(=O)c3ccco3)cc2)CC1
REMARK SMILES IDX 9 1 10 2 11 3 12 4 21 5 22 6 6 7 7 8 8 9 5 10 2 11 3 12
REMARK SMILES IDX 24 13 4 14 23 15 1 16 13 17 14 18 15 19 16 21 17 22 20 23
REMARK SMILES IDX 18 24 19 25
REMARK H PARENT 13 20
ROOT
ATOM      1  C   UNL     1     -30.131   3.838  25.593  1.00  0.00     0.082 A 
ATOM      2  C   UNL     1     -29.955   3.545  26.946  1.00  0.00     0.024 A 
ATOM      3  C   UNL     1     -29.974   2.214  27.374  1.00  0.00     0.027 A 
ATOM      4  C   UNL     1     -30.183   1.168  26.462  1.00  0.00     0.041 A 
ATOM      5  C   UNL     1     -30.387   1.480  25.114  1.00  0.00     0.027 A 
ATOM      6  C   UNL     1     -30.373   2.811  24.680  1.00  0.00     0.024 A 
ENDROOT
BRANCH   1   7
ATOM      7  S   UNL     1     -30.147   5.533  25.046  1.00  0.00     0.243 S 
ATOM      8  O   UNL     1     -29.342   5.610  23.846  1.00  0.00    -0.207 OA
ATOM      9  O   UNL     1     -31.528   5.972  25.049  1.00  0.00    -0.207 OA
BRANCH   7  10
ATOM     10  N   UNL     1     -29.335   6.356  26.279  1.00  0.00    -0.195 NA
ATOM     11  N   UNL     1     -28.232   8.898  27.438  1.00  0.00    -0.304 NA
ATOM     12  C   UNL     1     -27.784   8.322  26.153  1.00  0.00     0.101 C 
ATOM     13  C   UNL     1     -29.223   8.033  28.112  1.00  0.00     0.101 C 
ATOM     14  C   UNL     1     -27.934   6.794  26.034  1.00  0.00     0.118 C 
ATOM     15  C   UNL     1     -30.136   7.284  27.124  1.00  0.00     0.118 C 
ATOM     16  C   UNL     1     -27.112   9.185  28.330  1.00  0.00     0.105 C 
ENDBRANCH   7  10
ENDBRANCH   1   7
BRANCH   4  17
ATOM     17  N   UNL     1     -30.186  -0.142  26.984  1.00  0.00    -0.319 N 
ATOM     18  C   UNL     1     -29.311  -1.182  26.687  1.00  0.00     0.291 C 
ATOM     19  O   UNL     1     -28.358  -1.079  25.921  1.00  0.00    -0.265 OA
ATOM     20  H   UNL     1     -30.900  -0.336  27.671  1.00  0.00     0.170 HD
BRANCH  18  21
ATOM     21  C   UNL     1     -29.614  -2.428  27.383  1.00  0.00     0.191 A 
ATOM     22  C   UNL     1     -30.712  -2.892  28.093  1.00  0.00     0.056 A 
ATOM     23  O   UNL     1     -28.652  -3.408  27.378  1.00  0.00    -0.459 OA
ATOM     24  C   UNL     1     -30.399  -4.202  28.535  1.00  0.00     0.043 A 
ATOM     25  C   UNL     1     -29.134  -4.467  28.072  1.00  0.00     0.196 A 
ENDBRANCH  18  21
ENDBRANCH   4  17
TORSDOF 4
ENDMDL
MODEL 4
REMARK VINA RESULT:      -4.8      3.183      8.414
REMARK SMILES CN1CCN(S(=O)(=O)c2ccc(NC(=O)c3ccco3)cc2)CC1
REMARK SMILES IDX 9 1 10 2 11 3 12 4 21 5 22 6 6 7 7 8 8 9 5 10 2 11 3 12
REMARK SMILES IDX 24 13 4 14 23 15 1 16 13 17 14 18 15 19 16 21 17 22 20 23
REMARK SMILES IDX 18 24 19 25
REMARK H PARENT 13 20
ROOT
ATOM      1  C   UNL     1     -30.230   2.273  25.308  1.00  0.00     0.082 A 
ATOM      2  C   UNL     1     -30.093   3.407  24.506  1.00  0.00     0.024 A 
ATOM      3  C   UNL     1     -29.666   4.610  25.077  1.00  0.00     0.027 A 
ATOM      4  C   UNL     1     -29.388   4.696  26.449  1.00  0.00     0.041 A 
ATOM      5  C   UNL     1     -29.558   3.558  27.244  1.00  0.00     0.027 A 
ATOM      6  C   UNL     1     -29.989   2.352  26.680  1.00  0.00     0.024 A 
ENDROOT
BRANCH   1   7
ATOM      7  S   UNL     1     -30.810   0.747  24.595  1.00  0.00     0.243 S 
ATOM      8  O   UNL     1     -32.251   0.723  24.731  1.00  0.00    -0.207 OA
ATOM      9  O   UNL     1     -30.179   0.612  23.298  1.00  0.00    -0.207 OA
BRANCH   7  10
ATOM     10  N   UNL     1     -30.165  -0.438  25.614  1.00  0.00    -0.195 NA
ATOM     11  N   UNL     1     -29.368  -3.287  26.131  1.00  0.00    -0.304 NA
ATOM     12  C   UNL     1     -30.752  -2.866  25.835  1.00  0.00     0.101 C 
ATOM     13  C   UNL     1     -28.449  -2.133  26.220  1.00  0.00     0.101 C 
ATOM     14  C   UNL     1     -31.096  -1.420  26.236  1.00  0.00     0.118 C 
ATOM     15  C   UNL     1     -28.828  -0.989  25.261  1.00  0.00     0.118 C 
ATOM     16  C   UNL     1     -29.290  -4.097  27.344  1.00  0.00     0.105 C 
ENDBRANCH   7  10
ENDBRANCH   1   7
BRANCH   4  17
ATOM     17  N   UNL     1     -28.964   5.950  26.937  1.00  0.00    -0.319 N 
ATOM     18  C   UNL     1     -27.744   6.270  27.522  1.00  0.00     0.291 C 
ATOM     19  O   UNL     1     -26.822   5.473  27.668  1.00  0.00    -0.265 OA
ATOM     20  H   UNL     1     -29.623   6.706  26.825  1.00  0.00     0.170 HD
BRANCH  18  21
ATOM     21  C   UNL     1     -27.637   7.662  27.947  1.00  0.00     0.191 A 
ATOM     22  C   UNL     1     -27.635   8.293  29.182  1.00  0.00     0.056 A 
ATOM     23  O   UNL     1     -27.505   8.616  26.969  1.00  0.00    -0.459 OA
ATOM     24  C   UNL     1     -27.498   9.683  28.939  1.00  0.00     0.043 A 
ATOM     25  C   UNL     1     -27.423   9.825  27.576  1.00  0.00     0.196 A 
ENDBRANCH  18  21
ENDBRANCH   4  17
TORSDOF 4
ENDMDL
MODEL 5
REMARK VINA RESULT:      -4.8      3.121      8.288
REMARK SMILES CN1CCN(S(=O)(=O)c2ccc(NC(=O)c3ccco3)cc2)CC1
REMARK SMILES IDX 9 1 10 2 11 3 12 4 21 5 22 6 6 7 7 8 8 9 5 10 2 11 3 12
REMARK SMILES IDX 24 13 4 14 23 15 1 16 13 17 14 18 15 19 16 21 17 22 20 23
REMARK SMILES IDX 18 24 19 25
REMARK H PARENT 13 20
ROOT
ATOM      1  C   UNL     1     -30.326   2.172  25.131  1.00  0.00     0.082 A 
ATOM      2  C   UNL     1     -30.118   2.270  26.508  1.00  0.00     0.024 A 
ATOM      3  C   UNL     1     -29.764   3.501  27.068  1.00  0.00     0.027 A 
ATOM      4  C   UNL     1     -29.601   4.638  26.262  1.00  0.00     0.041 A 
ATOM      5  C   UNL     1     -29.784   4.517  24.882  1.00  0.00     0.027 A 
ATOM      6  C   UNL     1     -30.134   3.287  24.313  1.00  0.00     0.024 A 
ENDROOT
BRANCH   1   7
ATOM      7  S   UNL     1     -30.738   0.599  24.405  1.00  0.00     0.243 S 
ATOM      8  O   UNL     1     -32.181   0.482  24.412  1.00  0.00    -0.207 OA
ATOM      9  O   UNL     1     -29.985   0.485  23.173  1.00  0.00    -0.207 OA
BRANCH   7  10
ATOM     10  N   UNL     1     -30.114  -0.522  25.504  1.00  0.00    -0.195 NA
ATOM     11  N   UNL     1     -29.305  -3.331  26.197  1.00  0.00    -0.304 NA
ATOM     12  C   UNL     1     -30.684  -2.941  25.837  1.00  0.00     0.101 C 
ATOM     13  C   UNL     1     -28.400  -2.163  26.251  1.00  0.00     0.101 C 
ATOM     14  C   UNL     1     -31.053  -1.479  26.150  1.00  0.00     0.118 C 
ATOM     15  C   UNL     1     -28.762  -1.077  25.221  1.00  0.00     0.118 C 
ATOM     16  C   UNL     1     -29.256  -4.074  27.453  1.00  0.00     0.105 C 
ENDBRANCH   7  10
ENDBRANCH   1   7
BRANCH   4  17
ATOM     17  N   UNL     1     -29.243   5.836  26.914  1.00  0.00    -0.319 N 
ATOM     18  C   UNL     1     -28.034   6.148  27.527  1.00  0.00     0.291 C 
ATOM     19  O   UNL     1     -27.064   5.396  27.551  1.00  0.00    -0.265 OA
ATOM     20  H   UNL     1     -29.948   6.559  26.915  1.00  0.00     0.170 HD
BRANCH  18  21
ATOM     21  C   UNL     1     -28.003   7.471  28.139  1.00  0.00     0.191 A 
ATOM     22  C   UNL     1     -26.989   8.282  28.628  1.00  0.00     0.056 A 
ATOM     23  O   UNL     1     -29.200   8.126  28.299  1.00  0.00    -0.459 OA
ATOM     24  C   UNL     1     -27.599   9.471  29.103  1.00  0.00     0.043 A 
ATOM     25  C   UNL     1     -28.944   9.323  28.878  1.00  0.00     0.196 A 
ENDBRANCH  18  21
ENDBRANCH   4  17
TORSDOF 4
ENDMDL
MODEL 6
REMARK VINA RESULT:      -4.8     12.883     16.416
REMARK SMILES CN1CCN(S(=O)(=O)c2ccc(NC(=O)c3ccco3)cc2)CC1
REMARK SMILES IDX 9 1 10 2 11 3 12 4 21 5 22 6 6 7 7 8 8 9 5 10 2 11 3 12
REMARK SMILES IDX 24 13 4 14 23 15 1 16 13 17 14 18 15 19 16 21 17 22 20 23
REMARK SMILES IDX 18 24 19 25
REMARK H PARENT 13 20
ROOT
ATOM      1  C   UNL     1     -19.314  -6.390  20.424  1.00  0.00     0.082 A 
ATOM      2  C   UNL     1     -19.222  -5.477  19.372  1.00  0.00     0.024 A 
ATOM      3  C   UNL     1     -19.960  -4.290  19.420  1.00  0.00     0.027 A 
ATOM      4  C   UNL     1     -20.802  -4.011  20.507  1.00  0.00     0.041 A 
ATOM      5  C   UNL     1     -20.905  -4.949  21.538  1.00  0.00     0.027 A 
ATOM      6  C   UNL     1     -20.173  -6.141  21.494  1.00  0.00     0.024 A 
ENDROOT
BRANCH   1   7
ATOM      7  S   UNL     1     -18.408  -7.922  20.351  1.00  0.00     0.243 S 
ATOM      8  O   UNL     1     -19.021  -8.835  21.291  1.00  0.00    -0.207 OA
ATOM      9  O   UNL     1     -18.268  -8.272  18.952  1.00  0.00    -0.207 OA
BRANCH   7  10
ATOM     10  N   UNL     1     -16.879  -7.509  20.941  1.00  0.00    -0.195 NA
ATOM     11  N   UNL     1     -14.922  -5.446  21.911  1.00  0.00    -0.304 NA
ATOM     12  C   UNL     1     -15.507  -5.446  20.555  1.00  0.00     0.101 C 
ATOM     13  C   UNL     1     -15.354  -6.623  22.695  1.00  0.00     0.101 C 
ATOM     14  C   UNL     1     -15.925  -6.828  20.022  1.00  0.00     0.118 C 
ATOM     15  C   UNL     1     -16.789  -7.071  22.361  1.00  0.00     0.118 C 
ATOM     16  C   UNL     1     -13.465  -5.360  21.879  1.00  0.00     0.105 C 
ENDBRANCH   7  10
ENDBRANCH   1   7
BRANCH   4  17
ATOM     17  N   UNL     1     -21.507  -2.790  20.470  1.00  0.00    -0.319 N 
ATOM     18  C   UNL     1     -22.862  -2.592  20.225  1.00  0.00     0.291 C 
ATOM     19  O   UNL     1     -23.664  -3.501  20.031  1.00  0.00    -0.265 OA
ATOM     20  H   UNL     1     -20.960  -1.965  20.667  1.00  0.00     0.170 HD
BRANCH  18  21
ATOM     21  C   UNL     1     -23.266  -1.191  20.228  1.00  0.00     0.191 A 
ATOM     22  C   UNL     1     -24.359  -0.506  20.739  1.00  0.00     0.056 A 
ATOM     23  O   UNL     1     -22.435  -0.288  19.612  1.00  0.00    -0.459 OA
ATOM     24  C   UNL     1     -24.180   0.863  20.417  1.00  0.00     0.043 A 
ATOM     25  C   UNL     1     -22.994   0.940  19.732  1.00  0.00     0.196 A 
ENDBRANCH  18  21
ENDBRANCH   4  17
TORSDOF 4
ENDMDL
MODEL 7
REMARK VINA RESULT:      -4.4      3.272      8.101
REMARK SMILES CN1CCN(S(=O)(=O)c2ccc(NC(=O)c3ccco3)cc2)CC1
REMARK SMILES IDX 9 1 10 2 11 3 12 4 21 5 22 6 6 7 7 8 8 9 5 10 2 11 3 12
REMARK SMILES IDX 24 13 4 14 23 15 1 16 13 17 14 18 15 19 16 21 17 22 20 23
REMARK SMILES IDX 18 24 19 25
REMARK H PARENT 13 20
ROOT
ATOM      1  C   UNL     1     -31.765   1.325  26.304  1.00  0.00     0.082 A 
ATOM      2  C   UNL     1     -31.229   1.995  25.203  1.00  0.00     0.024 A 
ATOM      3  C   UNL     1     -30.281   3.003  25.402  1.00  0.00     0.027 A 
ATOM      4  C   UNL     1     -29.870   3.360  26.695  1.00  0.00     0.041 A 
ATOM      5  C   UNL     1     -30.438   2.700  27.788  1.00  0.00     0.027 A 
ATOM      6  C   UNL     1     -31.391   1.692  27.598  1.00  0.00     0.024 A 
ENDROOT
BRANCH   1   7
ATOM      7  S   UNL     1     -33.003   0.067  26.063  1.00  0.00     0.243 S 
ATOM      8  O   UNL     1     -34.064   0.312  27.016  1.00  0.00    -0.207 OA
ATOM      9  O   UNL     1     -33.276   0.002  24.641  1.00  0.00    -0.207 OA
BRANCH   7  10
ATOM     10  N   UNL     1     -32.213  -1.359  26.509  1.00  0.00    -0.195 NA
ATOM     11  N   UNL     1     -30.168  -2.805  28.167  1.00  0.00    -0.304 NA
ATOM     12  C   UNL     1     -29.834  -1.732  27.207  1.00  0.00     0.101 C 
ATOM     13  C   UNL     1     -31.611  -3.129  28.149  1.00  0.00     0.101 C 
ATOM     14  C   UNL     1     -30.819  -1.574  26.034  1.00  0.00     0.118 C 
ATOM     15  C   UNL     1     -32.497  -1.902  27.865  1.00  0.00     0.118 C 
ATOM     16  C   UNL     1     -29.371  -4.008  27.942  1.00  0.00     0.105 C 
ENDBRANCH   7  10
ENDBRANCH   1   7
BRANCH   4  17
ATOM     17  N   UNL     1     -28.909   4.387  26.798  1.00  0.00    -0.319 N 
ATOM     18  C   UNL     1     -29.129   5.748  26.986  1.00  0.00     0.291 C 
ATOM     19  O   UNL     1     -30.241   6.250  27.125  1.00  0.00    -0.265 OA
ATOM     20  H   UNL     1     -27.946   4.089  26.749  1.00  0.00     0.170 HD
BRANCH  18  21
ATOM     21  C   UNL     1     -27.909   6.547  27.018  1.00  0.00     0.191 A 
ATOM     22  C   UNL     1     -26.679   6.401  27.643  1.00  0.00     0.056 A 
ATOM     23  O   UNL     1     -27.895   7.713  26.293  1.00  0.00    -0.459 OA
ATOM     24  C   UNL     1     -25.893   7.524  27.283  1.00  0.00     0.043 A 
ATOM     25  C   UNL     1     -26.681   8.291  26.460  1.00  0.00     0.196 A 
ENDBRANCH  18  21
ENDBRANCH   4  17
TORSDOF 4
ENDMDL
MODEL 8
REMARK VINA RESULT:      -4.4      8.489     12.120
REMARK SMILES CN1CCN(S(=O)(=O)c2ccc(NC(=O)c3ccco3)cc2)CC1
REMARK SMILES IDX 9 1 10 2 11 3 12 4 21 5 22 6 6 7 7 8 8 9 5 10 2 11 3 12
REMARK SMILES IDX 24 13 4 14 23 15 1 16 13 17 14 18 15 19 16 21 17 22 20 23
REMARK SMILES IDX 18 24 19 25
REMARK H PARENT 13 20
ROOT
ATOM      1  C   UNL     1     -29.004  -5.036  34.257  1.00  0.00     0.082 A 
ATOM      2  C   UNL     1     -30.129  -4.669  34.998  1.00  0.00     0.024 A 
ATOM      3  C   UNL     1     -31.152  -3.939  34.386  1.00  0.00     0.027 A 
ATOM      4  C   UNL     1     -31.057  -3.557  33.040  1.00  0.00     0.041 A 
ATOM      5  C   UNL     1     -29.912  -3.906  32.319  1.00  0.00     0.027 A 
ATOM      6  C   UNL     1     -28.881  -4.634  32.926  1.00  0.00     0.024 A 
ENDROOT
BRANCH   1   7
ATOM      7  S   UNL     1     -27.679  -5.932  35.039  1.00  0.00     0.243 S 
ATOM      8  O   UNL     1     -27.622  -5.506  36.421  1.00  0.00    -0.207 OA
ATOM      9  O   UNL     1     -27.844  -7.329  34.694  1.00  0.00    -0.207 OA
BRANCH   7  10
ATOM     10  N   UNL     1     -26.295  -5.361  34.255  1.00  0.00    -0.195 NA
ATOM     11  N   UNL     1     -23.356  -4.741  34.260  1.00  0.00    -0.304 NA
ATOM     12  C   UNL     1     -24.330  -4.100  35.168  1.00  0.00     0.101 C 
ATOM     13  C   UNL     1     -24.015  -5.656  33.304  1.00  0.00     0.101 C 
ATOM     14  C   UNL     1     -25.771  -4.020  34.630  1.00  0.00     0.118 C 
ATOM     15  C   UNL     1     -25.248  -6.359  33.902  1.00  0.00     0.118 C 
ATOM     16  C   UNL     1     -22.542  -3.759  33.549  1.00  0.00     0.105 C 
ENDBRANCH   7  10
ENDBRANCH   1   7
BRANCH   4  17
ATOM     17  N   UNL     1     -32.137  -2.822  32.508  1.00  0.00    -0.319 N 
ATOM     18  C   UNL     1     -33.444  -3.252  32.300  1.00  0.00     0.291 C 
ATOM     19  O   UNL     1     -33.853  -4.371  32.597  1.00  0.00    -0.265 OA
ATOM     20  H   UNL     1     -31.936  -1.862  32.270  1.00  0.00     0.170 HD
BRANCH  18  21
ATOM     21  C   UNL     1     -34.311  -2.245  31.700  1.00  0.00     0.191 A 
ATOM     22  C   UNL     1     -34.584  -0.915  31.988  1.00  0.00     0.056 A 
ATOM     23  O   UNL     1     -35.052  -2.615  30.605  1.00  0.00    -0.459 OA
ATOM     24  C   UNL     1     -35.528  -0.467  31.029  1.00  0.00     0.043 A 
ATOM     25  C   UNL     1     -35.777  -1.541  30.211  1.00  0.00     0.196 A 
ENDBRANCH  18  21
ENDBRANCH   4  17
TORSDOF 4
ENDMDL
MODEL 9
REMARK VINA RESULT:      -4.4      6.208      8.452
REMARK SMILES CN1CCN(S(=O)(=O)c2ccc(NC(=O)c3ccco3)cc2)CC1
REMARK SMILES IDX 9 1 10 2 11 3 12 4 21 5 22 6 6 7 7 8 8 9 5 10 2 11 3 12
REMARK SMILES IDX 24 13 4 14 23 15 1 16 13 17 14 18 15 19 16 21 17 22 20 23
REMARK SMILES IDX 18 24 19 25
REMARK H PARENT 13 20
ROOT
ATOM      1  C   UNL     1     -25.904   8.125  25.966  1.00  0.00     0.082 A 
ATOM      2  C   UNL     1     -25.722   7.292  27.072  1.00  0.00     0.024 A 
ATOM      3  C   UNL     1     -26.750   6.429  27.464  1.00  0.00     0.027 A 
ATOM      4  C   UNL     1     -27.968   6.398  26.768  1.00  0.00     0.041 A 
ATOM      5  C   UNL     1     -28.145   7.258  25.681  1.00  0.00     0.027 A 
ATOM      6  C   UNL     1     -27.123   8.129  25.286  1.00  0.00     0.024 A 
ENDROOT
BRANCH   1   7
ATOM      7  S   UNL     1     -24.616   9.256  25.485  1.00  0.00     0.243 S 
ATOM      8  O   UNL     1     -25.128  10.062  24.398  1.00  0.00    -0.207 OA
ATOM      9  O   UNL     1     -24.109   9.870  26.695  1.00  0.00    -0.207 OA
BRANCH   7  10
ATOM     10  N   UNL     1     -23.410   8.246  24.868  1.00  0.00    -0.195 NA
ATOM     11  N   UNL     1     -20.580   7.806  23.960  1.00  0.00    -0.304 NA
ATOM     12  C   UNL     1     -21.504   8.768  23.324  1.00  0.00     0.101 C 
ATOM     13  C   UNL     1     -21.242   7.038  25.036  1.00  0.00     0.101 C 
ATOM     14  C   UNL     1     -22.999   8.419  23.448  1.00  0.00     0.118 C 
ATOM     15  C   UNL     1     -22.307   7.856  25.789  1.00  0.00     0.118 C 
ATOM     16  C   UNL     1     -19.974   6.903  22.985  1.00  0.00     0.105 C 
ENDBRANCH   7  10
ENDBRANCH   1   7
BRANCH   4  17
ATOM     17  N   UNL     1     -28.946   5.495  27.235  1.00  0.00    -0.319 N 
ATOM     18  C   UNL     1     -29.643   4.538  26.505  1.00  0.00     0.291 C 
ATOM     19  O   UNL     1     -29.466   4.324  25.309  1.00  0.00    -0.265 OA
ATOM     20  H   UNL     1     -29.143   5.539  28.224  1.00  0.00     0.170 HD
BRANCH  18  21
ATOM     21  C   UNL     1     -30.614   3.784  27.291  1.00  0.00     0.191 A 
ATOM     22  C   UNL     1     -30.717   2.454  27.673  1.00  0.00     0.056 A 
ATOM     23  O   UNL     1     -31.688   4.470  27.802  1.00  0.00    -0.459 OA
ATOM     24  C   UNL     1     -31.902   2.334  28.444  1.00  0.00     0.043 A 
ATOM     25  C   UNL     1     -32.453   3.590  28.491  1.00  0.00     0.196 A 
ENDBRANCH  18  21
ENDBRANCH   4  17
TORSDOF 4
ENDMDL
