MODEL 1
REMARK VINA RESULT:      -5.5      0.000      0.000
REMARK SMILES Cc1nc(Nc2ncc(C(=O)Nc3c(C)cccc3Cl)s2)cc(N2CCN(CCO)CC2)n1
REMARK SMILES IDX 1 1 2 2 3 3 4 4 22 5 23 6 33 7 5 8 6 10 7 11 21 12 8 13 9 14
REMARK SMILES IDX 10 15 11 16 12 17 13 19 14 20 19 21 16 22 18 23 17 24 15 25
REMARK SMILES IDX 20 26 24 27 25 28 32 29 26 30 31 31 27 32 28 33 29 34 30 35
REMARK H PARENT 5 9 12 18 30 36
ROOT
ATOM      1  C   UNL     1     -26.496   1.576  18.714  1.00  0.00     0.090 C 
ATOM      2  C   UNL     1     -26.416   0.271  19.441  1.00  0.00     0.130 A 
ATOM      3  N   UNL     1     -27.473  -0.090  20.183  1.00  0.00    -0.216 NA
ATOM      4  C   UNL     1     -27.402  -1.267  20.817  1.00  0.00     0.137 A 
ATOM      5  C   UNL     1     -26.294  -2.086  20.682  1.00  0.00     0.094 A 
ATOM      6  C   UNL     1     -25.251  -1.665  19.877  1.00  0.00     0.134 A 
ATOM      7  N   UNL     1     -25.310  -0.470  19.270  1.00  0.00    -0.216 NA
ENDROOT
BRANCH   4   8
ATOM      8  N   UNL     1     -28.461  -1.725  21.636  1.00  0.00    -0.316 N 
ATOM      9  H   UNL     1     -28.697  -2.680  21.395  1.00  0.00     0.170 HD
BRANCH   8  10
ATOM     10  C   UNL     1     -28.578  -1.491  22.966  1.00  0.00     0.189 A 
ATOM     11  N   UNL     1     -27.581  -1.748  23.788  1.00  0.00    -0.228 NA
ATOM     12  S   UNL     1     -30.025  -0.971  23.752  1.00  0.00    -0.091 S 
ATOM     13  C   UNL     1     -27.943  -1.460  25.089  1.00  0.00     0.139 A 
ATOM     14  C   UNL     1     -29.243  -1.038  25.276  1.00  0.00     0.114 A 
BRANCH  14  15
ATOM     15  C   UNL     1     -29.958  -0.668  26.487  1.00  0.00     0.267 C 
ATOM     16  O   UNL     1     -29.819  -1.263  27.551  1.00  0.00    -0.268 OA
ATOM     17  N   UNL     1     -30.758   0.456  26.337  1.00  0.00    -0.320 N 
ATOM     18  H   UNL     1     -30.445   1.109  25.628  1.00  0.00     0.170 HD
BRANCH  17  19
ATOM     19  C   UNL     1     -31.587   1.047  27.330  1.00  0.00     0.063 A 
ATOM     20  C   UNL     1     -32.859   0.571  27.700  1.00  0.00    -0.026 A 
ATOM     21  C   UNL     1     -31.106   2.232  27.932  1.00  0.00     0.064 A 
ATOM     22  C   UNL     1     -33.554   1.226  28.739  1.00  0.00     0.005 A 
ATOM     23  C   UNL     1     -31.820   2.881  28.941  1.00  0.00     0.023 A 
ATOM     24  C   UNL     1     -33.040   2.366  29.357  1.00  0.00     0.002 A 
ATOM     25  C   UNL     1     -33.572  -0.575  27.034  1.00  0.00     0.046 C 
ATOM     26  Cl  UNL     1     -29.583   2.916  27.459  1.00  0.00    -0.082 Cl
ENDBRANCH  17  19
ENDBRANCH  14  15
ENDBRANCH   8  10
ENDBRANCH   4   8
BRANCH   6  27
ATOM     27  N   UNL     1     -24.107  -2.447  19.722  1.00  0.00    -0.354 N 
ATOM     28  C   UNL     1     -22.846  -1.838  20.184  1.00  0.00     0.133 C 
ATOM     29  C   UNL     1     -24.000  -3.310  18.532  1.00  0.00     0.133 C 
ATOM     30  C   UNL     1     -21.697  -2.864  20.048  1.00  0.00     0.106 C 
ATOM     31  C   UNL     1     -22.640  -3.141  17.810  1.00  0.00     0.106 C 
ATOM     32  N   UNL     1     -21.435  -3.289  18.653  1.00  0.00    -0.298 NA
BRANCH  32  33
ATOM     33  C   UNL     1     -20.863  -4.644  18.576  1.00  0.00     0.112 C 
BRANCH  33  34
ATOM     34  C   UNL     1     -19.735  -4.916  19.591  1.00  0.00     0.171 C 
BRANCH  34  35
ATOM     35  O   UNL     1     -18.592  -4.095  19.367  1.00  0.00    -0.395 OA
ATOM     36  H   UNL     1     -18.373  -3.662  20.209  1.00  0.00     0.210 HD
ENDBRANCH  34  35
ENDBRANCH  33  34
ENDBRANCH  32  33
ENDBRANCH   6  27
TORSDOF 8
ENDMDL
MODEL 2
REMARK VINA RESULT:      -5.4      7.395     11.379
REMARK SMILES Cc1nc(Nc2ncc(C(=O)Nc3c(C)cccc3Cl)s2)cc(N2CCN(CCO)CC2)n1
REMARK SMILES IDX 1 1 2 2 3 3 4 4 22 5 23 6 33 7 5 8 6 10 7 11 21 12 8 13 9 14
REMARK SMILES IDX 10 15 11 16 12 17 13 19 14 20 19 21 16 22 18 23 17 24 15 25
REMARK SMILES IDX 20 26 24 27 25 28 32 29 26 30 31 31 27 32 28 33 29 34 30 35
REMARK H PARENT 5 9 12 18 30 36
ROOT
ATOM      1  C   UNL     1     -30.219   5.162  21.313  1.00  0.00     0.090 C 
ATOM      2  C   UNL     1     -29.979   5.103  22.788  1.00  0.00     0.130 A 
ATOM      3  N   UNL     1     -29.465   6.192  23.376  1.00  0.00    -0.216 NA
ATOM      4  C   UNL     1     -29.268   6.139  24.699  1.00  0.00     0.137 A 
ATOM      5  C   UNL     1     -29.615   5.015  25.429  1.00  0.00     0.094 A 
ATOM      6  C   UNL     1     -30.169   3.936  24.763  1.00  0.00     0.134 A 
ATOM      7  N   UNL     1     -30.332   3.979  23.432  1.00  0.00    -0.216 NA
ENDROOT
BRANCH   4   8
ATOM      8  N   UNL     1     -28.715   7.234  25.404  1.00  0.00    -0.316 N 
ATOM      9  H   UNL     1     -29.349   7.531  26.136  1.00  0.00     0.170 HD
BRANCH   8  10
ATOM     10  C   UNL     1     -27.416   7.348  25.777  1.00  0.00     0.189 A 
ATOM     11  N   UNL     1     -27.031   7.015  26.992  1.00  0.00    -0.228 NA
ATOM     12  S   UNL     1     -26.167   8.034  24.803  1.00  0.00    -0.091 S 
ATOM     13  C   UNL     1     -25.679   7.244  27.148  1.00  0.00     0.139 A 
ATOM     14  C   UNL     1     -25.033   7.813  26.069  1.00  0.00     0.114 A 
BRANCH  14  15
ATOM     15  C   UNL     1     -23.643   8.198  25.888  1.00  0.00     0.267 C 
ATOM     16  O   UNL     1     -22.996   8.783  26.751  1.00  0.00    -0.268 OA
ATOM     17  N   UNL     1     -23.105   7.785  24.677  1.00  0.00    -0.320 N 
ATOM     18  H   UNL     1     -23.530   6.951  24.286  1.00  0.00     0.170 HD
BRANCH  17  19
ATOM     19  C   UNL     1     -21.786   8.024  24.207  1.00  0.00     0.063 A 
ATOM     20  C   UNL     1     -20.680   7.191  24.462  1.00  0.00    -0.026 A 
ATOM     21  C   UNL     1     -21.578   9.222  23.485  1.00  0.00     0.064 A 
ATOM     22  C   UNL     1     -19.433   7.522  23.890  1.00  0.00     0.005 A 
ATOM     23  C   UNL     1     -20.331   9.546  22.949  1.00  0.00     0.023 A 
ATOM     24  C   UNL     1     -19.259   8.684  23.138  1.00  0.00     0.002 A 
ATOM     25  C   UNL     1     -20.709   5.976  25.349  1.00  0.00     0.046 C 
ATOM     26  Cl  UNL     1     -22.883  10.332  23.210  1.00  0.00    -0.082 Cl
ENDBRANCH  17  19
ENDBRANCH  14  15
ENDBRANCH   8  10
ENDBRANCH   4   8
BRANCH   6  27
ATOM     27  N   UNL     1     -30.519   2.775  25.450  1.00  0.00    -0.354 N 
ATOM     28  C   UNL     1     -30.021   2.673  26.835  1.00  0.00     0.133 C 
ATOM     29  C   UNL     1     -30.584   1.506  24.701  1.00  0.00     0.133 C 
ATOM     30  C   UNL     1     -30.582   1.391  27.492  1.00  0.00     0.106 C 
ATOM     31  C   UNL     1     -29.807   0.370  25.411  1.00  0.00     0.106 C 
ATOM     32  N   UNL     1     -30.147   0.138  26.830  1.00  0.00    -0.298 NA
BRANCH  32  33
ATOM     33  C   UNL     1     -31.121  -0.953  26.999  1.00  0.00     0.112 C 
BRANCH  33  34
ATOM     34  C   UNL     1     -30.557  -2.206  27.700  1.00  0.00     0.171 C 
BRANCH  34  35
ATOM     35  O   UNL     1     -29.164  -2.091  27.982  1.00  0.00    -0.395 OA
ATOM     36  H   UNL     1     -28.693  -2.087  27.132  1.00  0.00     0.210 HD
ENDBRANCH  34  35
ENDBRANCH  33  34
ENDBRANCH  32  33
ENDBRANCH   6  27
TORSDOF 8
ENDMDL
MODEL 3
REMARK VINA RESULT:      -5.4      6.779     10.529
REMARK SMILES Cc1nc(Nc2ncc(C(=O)Nc3c(C)cccc3Cl)s2)cc(N2CCN(CCO)CC2)n1
REMARK SMILES IDX 1 1 2 2 3 3 4 4 22 5 23 6 33 7 5 8 6 10 7 11 21 12 8 13 9 14
REMARK SMILES IDX 10 15 11 16 12 17 13 19 14 20 19 21 16 22 18 23 17 24 15 25
REMARK SMILES IDX 20 26 24 27 25 28 32 29 26 30 31 31 27 32 28 33 29 34 30 35
REMARK H PARENT 5 9 12 18 30 36
ROOT
ATOM      1  C   UNL     1     -27.681  -3.507  20.234  1.00  0.00     0.090 C 
ATOM      2  C   UNL     1     -26.309  -2.916  20.310  1.00  0.00     0.130 A 
ATOM      3  N   UNL     1     -26.215  -1.591  20.491  1.00  0.00    -0.216 NA
ATOM      4  C   UNL     1     -24.985  -1.070  20.577  1.00  0.00     0.137 A 
ATOM      5  C   UNL     1     -23.861  -1.877  20.512  1.00  0.00     0.094 A 
ATOM      6  C   UNL     1     -24.031  -3.241  20.354  1.00  0.00     0.134 A 
ATOM      7  N   UNL     1     -25.265  -3.756  20.234  1.00  0.00    -0.216 NA
ENDROOT
BRANCH   4   8
ATOM      8  N   UNL     1     -24.786   0.319  20.751  1.00  0.00    -0.316 N 
ATOM      9  H   UNL     1     -24.293   0.492  21.619  1.00  0.00     0.170 HD
BRANCH   8  10
ATOM     10  C   UNL     1     -24.418   1.186  19.775  1.00  0.00     0.189 A 
ATOM     11  N   UNL     1     -25.218   2.164  19.404  1.00  0.00    -0.228 NA
ATOM     12  S   UNL     1     -22.975   1.059  18.837  1.00  0.00    -0.091 S 
ATOM     13  C   UNL     1     -24.645   2.893  18.381  1.00  0.00     0.139 A 
ATOM     14  C   UNL     1     -23.427   2.436  17.921  1.00  0.00     0.114 A 
BRANCH  14  15
ATOM     15  C   UNL     1     -22.559   2.938  16.868  1.00  0.00     0.267 C 
ATOM     16  O   UNL     1     -22.987   3.486  15.857  1.00  0.00    -0.268 OA
ATOM     17  N   UNL     1     -21.207   2.794  17.148  1.00  0.00    -0.320 N 
ATOM     18  H   UNL     1     -20.975   2.790  18.135  1.00  0.00     0.170 HD
BRANCH  17  19
ATOM     19  C   UNL     1     -20.122   3.170  16.310  1.00  0.00     0.063 A 
ATOM     20  C   UNL     1     -19.513   2.328  15.360  1.00  0.00    -0.026 A 
ATOM     21  C   UNL     1     -19.592   4.466  16.504  1.00  0.00     0.064 A 
ATOM     22  C   UNL     1     -18.475   2.847  14.557  1.00  0.00     0.005 A 
ATOM     23  C   UNL     1     -18.547   4.954  15.718  1.00  0.00     0.023 A 
ATOM     24  C   UNL     1     -17.998   4.147  14.730  1.00  0.00     0.002 A 
ATOM     25  C   UNL     1     -19.855   0.876  15.157  1.00  0.00     0.046 C 
ATOM     26  Cl  UNL     1     -20.244   5.522  17.717  1.00  0.00    -0.082 Cl
ENDBRANCH  17  19
ENDBRANCH  14  15
ENDBRANCH   8  10
ENDBRANCH   4   8
BRANCH   6  27
ATOM     27  N   UNL     1     -22.931  -4.093  20.266  1.00  0.00    -0.354 N 
ATOM     28  C   UNL     1     -23.136  -5.462  20.775  1.00  0.00     0.133 C 
ATOM     29  C   UNL     1     -21.585  -3.528  20.479  1.00  0.00     0.133 C 
ATOM     30  C   UNL     1     -21.870  -6.307  20.508  1.00  0.00     0.106 C 
ATOM     31  C   UNL     1     -20.756  -4.363  21.486  1.00  0.00     0.106 C 
ATOM     32  N   UNL     1     -20.660  -5.811  21.205  1.00  0.00    -0.298 NA
BRANCH  32  33
ATOM     33  C   UNL     1     -19.419  -6.160  20.493  1.00  0.00     0.112 C 
BRANCH  33  34
ATOM     34  C   UNL     1     -18.254  -5.176  20.727  1.00  0.00     0.171 C 
BRANCH  34  35
ATOM     35  O   UNL     1     -18.092  -4.258  19.649  1.00  0.00    -0.395 OA
ATOM     36  H   UNL     1     -17.630  -4.727  18.933  1.00  0.00     0.210 HD
ENDBRANCH  34  35
ENDBRANCH  33  34
ENDBRANCH  32  33
ENDBRANCH   6  27
TORSDOF 8
ENDMDL
MODEL 4
REMARK VINA RESULT:      -5.4      7.462     10.609
REMARK SMILES Cc1nc(Nc2ncc(C(=O)Nc3c(C)cccc3Cl)s2)cc(N2CCN(CCO)CC2)n1
REMARK SMILES IDX 1 1 2 2 3 3 4 4 22 5 23 6 33 7 5 8 6 10 7 11 21 12 8 13 9 14
REMARK SMILES IDX 10 15 11 16 12 17 13 19 14 20 19 21 16 22 18 23 17 24 15 25
REMARK SMILES IDX 20 26 24 27 25 28 32 29 26 30 31 31 27 32 28 33 29 34 30 35
REMARK H PARENT 5 9 12 18 30 36
ROOT
ATOM      1  C   UNL     1     -18.516  -8.665  18.253  1.00  0.00     0.090 C 
ATOM      2  C   UNL     1     -18.164  -7.718  19.358  1.00  0.00     0.130 A 
ATOM      3  N   UNL     1     -19.173  -7.198  20.071  1.00  0.00    -0.216 NA
ATOM      4  C   UNL     1     -18.850  -6.365  21.069  1.00  0.00     0.137 A 
ATOM      5  C   UNL     1     -17.528  -6.083  21.366  1.00  0.00     0.094 A 
ATOM      6  C   UNL     1     -16.535  -6.679  20.608  1.00  0.00     0.134 A 
ATOM      7  N   UNL     1     -16.862  -7.486  19.586  1.00  0.00    -0.216 NA
ENDROOT
BRANCH   4   8
ATOM      8  N   UNL     1     -19.846  -5.754  21.866  1.00  0.00    -0.316 N 
ATOM      9  H   UNL     1     -19.415  -5.238  22.624  1.00  0.00     0.170 HD
BRANCH   8  10
ATOM     10  C   UNL     1     -20.955  -5.132  21.393  1.00  0.00     0.189 A 
ATOM     11  N   UNL     1     -22.147  -5.673  21.540  1.00  0.00    -0.228 NA
ATOM     12  S   UNL     1     -20.949  -3.677  20.465  1.00  0.00    -0.091 S 
ATOM     13  C   UNL     1     -23.112  -4.877  20.956  1.00  0.00     0.139 A 
ATOM     14  C   UNL     1     -22.654  -3.750  20.304  1.00  0.00     0.114 A 
BRANCH  14  15
ATOM     15  C   UNL     1     -23.371  -2.713  19.581  1.00  0.00     0.267 C 
ATOM     16  O   UNL     1     -24.418  -2.924  18.978  1.00  0.00    -0.268 OA
ATOM     17  N   UNL     1     -22.791  -1.456  19.693  1.00  0.00    -0.320 N 
ATOM     18  H   UNL     1     -22.262  -1.307  20.545  1.00  0.00     0.170 HD
BRANCH  17  19
ATOM     19  C   UNL     1     -23.247  -0.254  19.088  1.00  0.00     0.063 A 
ATOM     20  C   UNL     1     -23.056   0.086  17.735  1.00  0.00    -0.026 A 
ATOM     21  C   UNL     1     -23.882   0.681  19.937  1.00  0.00     0.064 A 
ATOM     22  C   UNL     1     -23.606   1.292  17.252  1.00  0.00     0.005 A 
ATOM     23  C   UNL     1     -24.397   1.882  19.447  1.00  0.00     0.023 A 
ATOM     24  C   UNL     1     -24.274   2.180  18.097  1.00  0.00     0.002 A 
ATOM     25  C   UNL     1     -22.258  -0.727  16.752  1.00  0.00     0.046 C 
ATOM     26  Cl  UNL     1     -24.073   0.359  21.632  1.00  0.00    -0.082 Cl
ENDBRANCH  17  19
ENDBRANCH  14  15
ENDBRANCH   8  10
ENDBRANCH   4   8
BRANCH   6  27
ATOM     27  N   UNL     1     -15.190  -6.414  20.857  1.00  0.00    -0.354 N 
ATOM     28  C   UNL     1     -14.642  -6.986  22.101  1.00  0.00     0.133 C 
ATOM     29  C   UNL     1     -14.647  -5.100  20.466  1.00  0.00     0.133 C 
ATOM     30  C   UNL     1     -13.124  -6.700  22.176  1.00  0.00     0.106 C 
ATOM     31  C   UNL     1     -13.850  -4.434  21.615  1.00  0.00     0.106 C 
ATOM     32  N   UNL     1     -12.788  -5.258  22.231  1.00  0.00    -0.298 NA
BRANCH  32  33
ATOM     33  C   UNL     1     -11.460  -4.968  21.667  1.00  0.00     0.112 C 
BRANCH  33  34
ATOM     34  C   UNL     1     -11.489  -4.164  20.351  1.00  0.00     0.171 C 
BRANCH  34  35
ATOM     35  O   UNL     1     -11.368  -4.997  19.201  1.00  0.00    -0.395 OA
ATOM     36  H   UNL     1     -12.267  -5.227  18.912  1.00  0.00     0.210 HD
ENDBRANCH  34  35
ENDBRANCH  33  34
ENDBRANCH  32  33
ENDBRANCH   6  27
TORSDOF 8
ENDMDL
MODEL 5
REMARK VINA RESULT:      -5.4      7.111     10.900
REMARK SMILES Cc1nc(Nc2ncc(C(=O)Nc3c(C)cccc3Cl)s2)cc(N2CCN(CCO)CC2)n1
REMARK SMILES IDX 1 1 2 2 3 3 4 4 22 5 23 6 33 7 5 8 6 10 7 11 21 12 8 13 9 14
REMARK SMILES IDX 10 15 11 16 12 17 13 19 14 20 19 21 16 22 18 23 17 24 15 25
REMARK SMILES IDX 20 26 24 27 25 28 32 29 26 30 31 31 27 32 28 33 29 34 30 35
REMARK H PARENT 5 9 12 18 30 36
ROOT
ATOM      1  C   UNL     1     -30.381  -7.529  27.250  1.00  0.00     0.090 C 
ATOM      2  C   UNL     1     -30.106  -6.280  28.028  1.00  0.00     0.130 A 
ATOM      3  N   UNL     1     -29.715  -5.197  27.342  1.00  0.00    -0.216 NA
ATOM      4  C   UNL     1     -29.487  -4.079  28.041  1.00  0.00     0.137 A 
ATOM      5  C   UNL     1     -29.680  -4.041  29.412  1.00  0.00     0.094 A 
ATOM      6  C   UNL     1     -30.114  -5.187  30.053  1.00  0.00     0.134 A 
ATOM      7  N   UNL     1     -30.308  -6.316  29.355  1.00  0.00    -0.216 NA
ENDROOT
BRANCH   4   8
ATOM      8  N   UNL     1     -29.055  -2.891  27.406  1.00  0.00    -0.316 N 
ATOM      9  H   UNL     1     -28.427  -3.115  26.643  1.00  0.00     0.170 HD
BRANCH   8  10
ATOM     10  C   UNL     1     -29.842  -1.825  27.121  1.00  0.00     0.189 A 
ATOM     11  N   UNL     1     -31.131  -1.845  27.393  1.00  0.00    -0.228 NA
ATOM     12  S   UNL     1     -29.319  -0.408  26.285  1.00  0.00    -0.091 S 
ATOM     13  C   UNL     1     -31.727  -0.667  26.989  1.00  0.00     0.139 A 
ATOM     14  C   UNL     1     -30.906   0.238  26.348  1.00  0.00     0.114 A 
BRANCH  14  15
ATOM     15  C   UNL     1     -31.190   1.548  25.787  1.00  0.00     0.267 C 
ATOM     16  O   UNL     1     -32.281   2.098  25.896  1.00  0.00    -0.268 OA
ATOM     17  N   UNL     1     -30.093   2.140  25.175  1.00  0.00    -0.320 N 
ATOM     18  H   UNL     1     -29.194   1.851  25.544  1.00  0.00     0.170 HD
BRANCH  17  19
ATOM     19  C   UNL     1     -30.062   3.403  24.523  1.00  0.00     0.063 A 
ATOM     20  C   UNL     1     -30.359   3.611  23.163  1.00  0.00    -0.026 A 
ATOM     21  C   UNL     1     -29.643   4.506  25.300  1.00  0.00     0.064 A 
ATOM     22  C   UNL     1     -30.340   4.928  22.656  1.00  0.00     0.005 A 
ATOM     23  C   UNL     1     -29.604   5.799  24.775  1.00  0.00     0.023 A 
ATOM     24  C   UNL     1     -29.970   6.012  23.453  1.00  0.00     0.002 A 
ATOM     25  C   UNL     1     -30.658   2.517  22.174  1.00  0.00     0.046 C 
ATOM     26  Cl  UNL     1     -29.182   4.301  26.961  1.00  0.00    -0.082 Cl
ENDBRANCH  17  19
ENDBRANCH  14  15
ENDBRANCH   8  10
ENDBRANCH   4   8
BRANCH   6  27
ATOM     27  N   UNL     1     -30.308  -5.204  31.433  1.00  0.00    -0.354 N 
ATOM     28  C   UNL     1     -31.462  -5.988  31.912  1.00  0.00     0.133 C 
ATOM     29  C   UNL     1     -30.004  -3.982  32.202  1.00  0.00     0.133 C 
ATOM     30  C   UNL     1     -31.474  -5.998  33.457  1.00  0.00     0.106 C 
ATOM     31  C   UNL     1     -31.160  -3.593  33.157  1.00  0.00     0.106 C 
ATOM     32  N   UNL     1     -31.638  -4.656  34.065  1.00  0.00    -0.298 NA
BRANCH  32  33
ATOM     33  C   UNL     1     -31.026  -4.566  35.401  1.00  0.00     0.112 C 
BRANCH  33  34
ATOM     34  C   UNL     1     -29.922  -5.610  35.666  1.00  0.00     0.171 C 
BRANCH  34  35
ATOM     35  O   UNL     1     -28.621  -5.116  35.361  1.00  0.00    -0.395 OA
ATOM     36  H   UNL     1     -28.172  -4.934  36.204  1.00  0.00     0.210 HD
ENDBRANCH  34  35
ENDBRANCH  33  34
ENDBRANCH  32  33
ENDBRANCH   6  27
TORSDOF 8
ENDMDL
MODEL 6
REMARK VINA RESULT:      -5.3      7.685     12.156
REMARK SMILES Cc1nc(Nc2ncc(C(=O)Nc3c(C)cccc3Cl)s2)cc(N2CCN(CCO)CC2)n1
REMARK SMILES IDX 1 1 2 2 3 3 4 4 22 5 23 6 33 7 5 8 6 10 7 11 21 12 8 13 9 14
REMARK SMILES IDX 10 15 11 16 12 17 13 19 14 20 19 21 16 22 18 23 17 24 15 25
REMARK SMILES IDX 20 26 24 27 25 28 32 29 26 30 31 31 27 32 28 33 29 34 30 35
REMARK H PARENT 5 9 12 18 30 36
ROOT
ATOM      1  C   UNL     1     -31.807   8.276  25.973  1.00  0.00     0.090 C 
ATOM      2  C   UNL     1     -30.632   7.424  26.337  1.00  0.00     0.130 A 
ATOM      3  N   UNL     1     -29.629   8.007  27.009  1.00  0.00    -0.216 NA
ATOM      4  C   UNL     1     -28.589   7.235  27.347  1.00  0.00     0.137 A 
ATOM      5  C   UNL     1     -28.570   5.885  27.040  1.00  0.00     0.094 A 
ATOM      6  C   UNL     1     -29.653   5.342  26.370  1.00  0.00     0.134 A 
ATOM      7  N   UNL     1     -30.678   6.125  26.002  1.00  0.00    -0.216 NA
ENDROOT
BRANCH   4   8
ATOM      8  N   UNL     1     -27.476   7.765  28.042  1.00  0.00    -0.316 N 
ATOM      9  H   UNL     1     -27.209   7.140  28.794  1.00  0.00     0.170 HD
BRANCH   8  10
ATOM     10  C   UNL     1     -26.402   8.357  27.465  1.00  0.00     0.189 A 
ATOM     11  N   UNL     1     -26.296   9.669  27.421  1.00  0.00    -0.228 NA
ATOM     12  S   UNL     1     -25.144   7.519  26.632  1.00  0.00    -0.091 S 
ATOM     13  C   UNL     1     -25.140  10.037  26.763  1.00  0.00     0.139 A 
ATOM     14  C   UNL     1     -24.384   9.006  26.244  1.00  0.00     0.114 A 
BRANCH  14  15
ATOM     15  C   UNL     1     -23.139   9.023  25.495  1.00  0.00     0.267 C 
ATOM     16  O   UNL     1     -22.405  10.006  25.444  1.00  0.00    -0.268 OA
ATOM     17  N   UNL     1     -22.831   7.807  24.901  1.00  0.00    -0.320 N 
ATOM     18  H   UNL     1     -23.210   6.995  25.375  1.00  0.00     0.170 HD
BRANCH  17  19
ATOM     19  C   UNL     1     -21.698   7.518  24.094  1.00  0.00     0.063 A 
ATOM     20  C   UNL     1     -20.538   6.860  24.547  1.00  0.00    -0.026 A 
ATOM     21  C   UNL     1     -21.732   7.987  22.761  1.00  0.00     0.064 A 
ATOM     22  C   UNL     1     -19.504   6.591  23.624  1.00  0.00     0.005 A 
ATOM     23  C   UNL     1     -20.689   7.734  21.869  1.00  0.00     0.023 A 
ATOM     24  C   UNL     1     -19.579   7.019  22.298  1.00  0.00     0.002 A 
ATOM     25  C   UNL     1     -20.286   6.452  25.973  1.00  0.00     0.046 C 
ATOM     26  Cl  UNL     1     -23.098   8.879  22.167  1.00  0.00    -0.082 Cl
ENDBRANCH  17  19
ENDBRANCH  14  15
ENDBRANCH   8  10
ENDBRANCH   4   8
BRANCH   6  27
ATOM     27  N   UNL     1     -29.674   3.992  26.024  1.00  0.00    -0.354 N 
ATOM     28  C   UNL     1     -30.569   3.628  24.910  1.00  0.00     0.133 C 
ATOM     29  C   UNL     1     -29.552   2.988  27.098  1.00  0.00     0.133 C 
ATOM     30  C   UNL     1     -30.398   2.128  24.578  1.00  0.00     0.106 C 
ATOM     31  C   UNL     1     -30.644   1.894  26.998  1.00  0.00     0.106 C 
ATOM     32  N   UNL     1     -30.773   1.221  25.689  1.00  0.00    -0.298 NA
BRANCH  32  33
ATOM     33  C   UNL     1     -30.041  -0.056  25.643  1.00  0.00     0.112 C 
BRANCH  33  34
ATOM     34  C   UNL     1     -29.662  -0.621  27.026  1.00  0.00     0.171 C 
BRANCH  34  35
ATOM     35  O   UNL     1     -28.294  -1.014  27.097  1.00  0.00    -0.395 OA
ATOM     36  H   UNL     1     -28.104  -1.555  26.313  1.00  0.00     0.210 HD
ENDBRANCH  34  35
ENDBRANCH  33  34
ENDBRANCH  32  33
ENDBRANCH   6  27
TORSDOF 8
ENDMDL
MODEL 7
REMARK VINA RESULT:      -5.1      7.211     11.350
REMARK SMILES Cc1nc(Nc2ncc(C(=O)Nc3c(C)cccc3Cl)s2)cc(N2CCN(CCO)CC2)n1
REMARK SMILES IDX 1 1 2 2 3 3 4 4 22 5 23 6 33 7 5 8 6 10 7 11 21 12 8 13 9 14
REMARK SMILES IDX 10 15 11 16 12 17 13 19 14 20 19 21 16 22 18 23 17 24 15 25
REMARK SMILES IDX 20 26 24 27 25 28 32 29 26 30 31 31 27 32 28 33 29 34 30 35
REMARK H PARENT 5 9 12 18 30 36
ROOT
ATOM      1  C   UNL     1     -35.196  -1.766  32.010  1.00  0.00     0.090 C 
ATOM      2  C   UNL     1     -34.028  -2.502  31.433  1.00  0.00     0.130 A 
ATOM      3  N   UNL     1     -33.867  -2.462  30.103  1.00  0.00    -0.216 NA
ATOM      4  C   UNL     1     -32.811  -3.108  29.594  1.00  0.00     0.137 A 
ATOM      5  C   UNL     1     -31.909  -3.762  30.416  1.00  0.00     0.094 A 
ATOM      6  C   UNL     1     -32.119  -3.739  31.783  1.00  0.00     0.134 A 
ATOM      7  N   UNL     1     -33.198  -3.120  32.288  1.00  0.00    -0.216 NA
ENDROOT
BRANCH   4   8
ATOM      8  N   UNL     1     -32.568  -3.135  28.201  1.00  0.00    -0.316 N 
ATOM      9  H   UNL     1     -33.313  -3.634  27.729  1.00  0.00     0.170 HD
BRANCH   8  10
ATOM     10  C   UNL     1     -32.108  -2.092  27.466  1.00  0.00     0.189 A 
ATOM     11  N   UNL     1     -30.908  -2.126  26.923  1.00  0.00    -0.228 NA
ATOM     12  S   UNL     1     -32.938  -0.593  27.254  1.00  0.00    -0.091 S 
ATOM     13  C   UNL     1     -30.651  -0.948  26.251  1.00  0.00     0.139 A 
ATOM     14  C   UNL     1     -31.631   0.020  26.329  1.00  0.00     0.114 A 
BRANCH  14  15
ATOM     15  C   UNL     1     -31.693   1.359  25.767  1.00  0.00     0.267 C 
ATOM     16  O   UNL     1     -32.710   2.045  25.788  1.00  0.00    -0.268 OA
ATOM     17  N   UNL     1     -30.478   1.808  25.266  1.00  0.00    -0.320 N 
ATOM     18  H   UNL     1     -29.660   1.403  25.710  1.00  0.00     0.170 HD
BRANCH  17  19
ATOM     19  C   UNL     1     -30.226   3.060  24.643  1.00  0.00     0.063 A 
ATOM     20  C   UNL     1     -30.354   3.308  23.263  1.00  0.00    -0.026 A 
ATOM     21  C   UNL     1     -29.756   4.100  25.476  1.00  0.00     0.064 A 
ATOM     22  C   UNL     1     -30.121   4.615  22.782  1.00  0.00     0.005 A 
ATOM     23  C   UNL     1     -29.506   5.379  24.979  1.00  0.00     0.023 A 
ATOM     24  C   UNL     1     -29.706   5.641  23.630  1.00  0.00     0.002 A 
ATOM     25  C   UNL     1     -30.682   2.264  22.230  1.00  0.00     0.046 C 
ATOM     26  Cl  UNL     1     -29.497   3.833  27.172  1.00  0.00    -0.082 Cl
ENDBRANCH  17  19
ENDBRANCH  14  15
ENDBRANCH   8  10
ENDBRANCH   4   8
BRANCH   6  27
ATOM     27  N   UNL     1     -31.248  -4.396  32.651  1.00  0.00    -0.354 N 
ATOM     28  C   UNL     1     -31.188  -3.864  34.025  1.00  0.00     0.133 C 
ATOM     29  C   UNL     1     -29.978  -4.918  32.113  1.00  0.00     0.133 C 
ATOM     30  C   UNL     1     -30.270  -4.762  34.886  1.00  0.00     0.106 C 
ATOM     31  C   UNL     1     -28.764  -4.501  32.979  1.00  0.00     0.106 C 
ATOM     32  N   UNL     1     -28.863  -4.800  34.423  1.00  0.00    -0.298 NA
BRANCH  32  33
ATOM     33  C   UNL     1     -28.188  -6.060  34.779  1.00  0.00     0.112 C 
BRANCH  33  34
ATOM     34  C   UNL     1     -26.818  -5.876  35.463  1.00  0.00     0.171 C 
BRANCH  34  35
ATOM     35  O   UNL     1     -26.540  -4.511  35.766  1.00  0.00    -0.395 OA
ATOM     36  H   UNL     1     -27.316  -4.150  36.227  1.00  0.00     0.210 HD
ENDBRANCH  34  35
ENDBRANCH  33  34
ENDBRANCH  32  33
ENDBRANCH   6  27
TORSDOF 8
ENDMDL
MODEL 8
REMARK VINA RESULT:      -5.1      7.096     10.713
REMARK SMILES Cc1nc(Nc2ncc(C(=O)Nc3c(C)cccc3Cl)s2)cc(N2CCN(CCO)CC2)n1
REMARK SMILES IDX 1 1 2 2 3 3 4 4 22 5 23 6 33 7 5 8 6 10 7 11 21 12 8 13 9 14
REMARK SMILES IDX 10 15 11 16 12 17 13 19 14 20 19 21 16 22 18 23 17 24 15 25
REMARK SMILES IDX 20 26 24 27 25 28 32 29 26 30 31 31 27 32 28 33 29 34 30 35
REMARK H PARENT 5 9 12 18 30 36
ROOT
ATOM      1  C   UNL     1     -19.138 -11.025  20.433  1.00  0.00     0.090 C 
ATOM      2  C   UNL     1     -18.762  -9.645  20.873  1.00  0.00     0.130 A 
ATOM      3  N   UNL     1     -19.739  -8.856  21.340  1.00  0.00    -0.216 NA
ATOM      4  C   UNL     1     -19.393  -7.629  21.748  1.00  0.00     0.137 A 
ATOM      5  C   UNL     1     -18.074  -7.210  21.716  1.00  0.00     0.094 A 
ATOM      6  C   UNL     1     -17.111  -8.086  21.249  1.00  0.00     0.134 A 
ATOM      7  N   UNL     1     -17.465  -9.303  20.808  1.00  0.00    -0.216 NA
ENDROOT
BRANCH   4   8
ATOM      8  N   UNL     1     -20.358  -6.720  22.242  1.00  0.00    -0.316 N 
ATOM      9  H   UNL     1     -20.222  -6.575  23.235  1.00  0.00     0.170 HD
BRANCH   8  10
ATOM     10  C   UNL     1     -20.761  -5.588  21.613  1.00  0.00     0.189 A 
ATOM     11  N   UNL     1     -19.884  -4.692  21.208  1.00  0.00    -0.228 NA
ATOM     12  S   UNL     1     -22.407  -5.122  21.379  1.00  0.00    -0.091 S 
ATOM     13  C   UNL     1     -20.527  -3.618  20.625  1.00  0.00     0.139 A 
ATOM     14  C   UNL     1     -21.907  -3.660  20.636  1.00  0.00     0.114 A 
BRANCH  14  15
ATOM     15  C   UNL     1     -22.891  -2.715  20.134  1.00  0.00     0.267 C 
ATOM     16  O   UNL     1     -24.070  -3.009  19.966  1.00  0.00    -0.268 OA
ATOM     17  N   UNL     1     -22.382  -1.441  19.927  1.00  0.00    -0.320 N 
ATOM     18  H   UNL     1     -21.594  -1.196  20.517  1.00  0.00     0.170 HD
BRANCH  17  19
ATOM     19  C   UNL     1     -23.090  -0.314  19.427  1.00  0.00     0.063 A 
ATOM     20  C   UNL     1     -23.851   0.569  20.217  1.00  0.00    -0.026 A 
ATOM     21  C   UNL     1     -23.064  -0.119  18.028  1.00  0.00     0.064 A 
ATOM     22  C   UNL     1     -24.463   1.679  19.598  1.00  0.00     0.005 A 
ATOM     23  C   UNL     1     -23.697   0.971  17.429  1.00  0.00     0.023 A 
ATOM     24  C   UNL     1     -24.385   1.883  18.220  1.00  0.00     0.002 A 
ATOM     25  C   UNL     1     -24.109   0.396  21.690  1.00  0.00     0.046 C 
ATOM     26  Cl  UNL     1     -22.213  -1.220  16.991  1.00  0.00    -0.082 Cl
ENDBRANCH  17  19
ENDBRANCH  14  15
ENDBRANCH   8  10
ENDBRANCH   4   8
BRANCH   6  27
ATOM     27  N   UNL     1     -15.771  -7.706  21.181  1.00  0.00    -0.354 N 
ATOM     28  C   UNL     1     -15.188  -7.180  22.429  1.00  0.00     0.133 C 
ATOM     29  C   UNL     1     -15.278  -7.088  19.936  1.00  0.00     0.133 C 
ATOM     30  C   UNL     1     -13.680  -6.910  22.221  1.00  0.00     0.106 C 
ATOM     31  C   UNL     1     -14.488  -5.783  20.208  1.00  0.00     0.106 C 
ATOM     32  N   UNL     1     -13.392  -5.881  21.194  1.00  0.00    -0.298 NA
BRANCH  32  33
ATOM     33  C   UNL     1     -12.081  -6.078  20.554  1.00  0.00     0.112 C 
BRANCH  33  34
ATOM     34  C   UNL     1     -11.810  -5.143  19.358  1.00  0.00     0.171 C 
BRANCH  34  35
ATOM     35  O   UNL     1     -11.542  -3.804  19.764  1.00  0.00    -0.395 OA
ATOM     36  H   UNL     1     -12.375  -3.307  19.701  1.00  0.00     0.210 HD
ENDBRANCH  34  35
ENDBRANCH  33  34
ENDBRANCH  32  33
ENDBRANCH   6  27
TORSDOF 8
ENDMDL
MODEL 9
REMARK VINA RESULT:      -5.0      5.951      9.863
REMARK SMILES Cc1nc(Nc2ncc(C(=O)Nc3c(C)cccc3Cl)s2)cc(N2CCN(CCO)CC2)n1
REMARK SMILES IDX 1 1 2 2 3 3 4 4 22 5 23 6 33 7 5 8 6 10 7 11 21 12 8 13 9 14
REMARK SMILES IDX 10 15 11 16 12 17 13 19 14 20 19 21 16 22 18 23 17 24 15 25
REMARK SMILES IDX 20 26 24 27 25 28 32 29 26 30 31 31 27 32 28 33 29 34 30 35
REMARK H PARENT 5 9 12 18 30 36
ROOT
ATOM      1  C   UNL     1     -28.735  -1.784  22.430  1.00  0.00     0.090 C 
ATOM      2  C   UNL     1     -29.274  -1.666  23.821  1.00  0.00     0.130 A 
ATOM      3  N   UNL     1     -29.537  -2.802  24.481  1.00  0.00    -0.216 NA
ATOM      4  C   UNL     1     -30.002  -2.690  25.732  1.00  0.00     0.137 A 
ATOM      5  C   UNL     1     -30.172  -1.450  26.323  1.00  0.00     0.094 A 
ATOM      6  C   UNL     1     -29.853  -0.318  25.594  1.00  0.00     0.134 A 
ATOM      7  N   UNL     1     -29.420  -0.432  24.329  1.00  0.00    -0.216 NA
ENDROOT
BRANCH   4   8
ATOM      8  N   UNL     1     -30.324  -3.833  26.501  1.00  0.00    -0.316 N 
ATOM      9  H   UNL     1     -30.376  -4.649  25.903  1.00  0.00     0.170 HD
BRANCH   8  10
ATOM     10  C   UNL     1     -29.808  -4.127  27.719  1.00  0.00     0.189 A 
ATOM     11  N   UNL     1     -28.812  -4.981  27.843  1.00  0.00    -0.228 NA
ATOM     12  S   UNL     1     -30.435  -3.551  29.221  1.00  0.00    -0.091 S 
ATOM     13  C   UNL     1     -28.478  -5.142  29.173  1.00  0.00     0.139 A 
ATOM     14  C   UNL     1     -29.259  -4.457  30.080  1.00  0.00     0.114 A 
BRANCH  14  15
ATOM     15  C   UNL     1     -29.206  -4.403  31.532  1.00  0.00     0.267 C 
ATOM     16  O   UNL     1     -28.526  -3.585  32.143  1.00  0.00    -0.268 OA
ATOM     17  N   UNL     1     -30.044  -5.319  32.153  1.00  0.00    -0.320 N 
ATOM     18  H   UNL     1     -30.862  -5.580  31.614  1.00  0.00     0.170 HD
BRANCH  17  19
ATOM     19  C   UNL     1     -30.197  -5.518  33.552  1.00  0.00     0.063 A 
ATOM     20  C   UNL     1     -29.471  -6.454  34.313  1.00  0.00    -0.026 A 
ATOM     21  C   UNL     1     -31.198  -4.755  34.194  1.00  0.00     0.064 A 
ATOM     22  C   UNL     1     -29.687  -6.512  35.706  1.00  0.00     0.005 A 
ATOM     23  C   UNL     1     -31.416  -4.844  35.570  1.00  0.00     0.023 A 
ATOM     24  C   UNL     1     -30.646  -5.713  36.330  1.00  0.00     0.002 A 
ATOM     25  C   UNL     1     -28.495  -7.449  33.744  1.00  0.00     0.046 C 
ATOM     26  Cl  UNL     1     -32.184  -3.644  33.296  1.00  0.00    -0.082 Cl
ENDBRANCH  17  19
ENDBRANCH  14  15
ENDBRANCH   8  10
ENDBRANCH   4   8
BRANCH   6  27
ATOM     27  N   UNL     1     -30.022   0.954  26.139  1.00  0.00    -0.354 N 
ATOM     28  C   UNL     1     -30.709   1.009  27.443  1.00  0.00     0.133 C 
ATOM     29  C   UNL     1     -30.295   2.080  25.227  1.00  0.00     0.133 C 
ATOM     30  C   UNL     1     -30.719   2.466  27.961  1.00  0.00     0.106 C 
ATOM     31  C   UNL     1     -31.506   2.927  25.693  1.00  0.00     0.106 C 
ATOM     32  N   UNL     1     -31.464   3.406  27.090  1.00  0.00    -0.298 NA
BRANCH  32  33
ATOM     33  C   UNL     1     -30.958   4.785  27.192  1.00  0.00     0.112 C 
BRANCH  33  34
ATOM     34  C   UNL     1     -31.235   5.657  25.950  1.00  0.00     0.171 C 
BRANCH  34  35
ATOM     35  O   UNL     1     -32.450   6.394  26.063  1.00  0.00    -0.395 OA
ATOM     36  H   UNL     1     -33.148   5.875  25.630  1.00  0.00     0.210 HD
ENDBRANCH  34  35
ENDBRANCH  33  34
ENDBRANCH  32  33
ENDBRANCH   6  27
TORSDOF 8
ENDMDL
