MODEL 1
REMARK VINA RESULT:      -6.8      0.000      0.000
REMARK SMILES Cc1ccc(Nc2nccc(N(C)c3ccc4c(C)n(C)nc4c3)n2)cc1S(N)(=O)=O
REMARK SMILES IDX 6 1 5 3 2 4 27 5 3 6 26 7 4 8 1 9 28 10 30 11 31 12 29 13
REMARK SMILES IDX 7 16 8 17 25 18 9 19 11 20 10 21 12 22 13 23 14 24 24 25
REMARK SMILES IDX 15 26 23 27 16 28 22 29 17 30 20 31 18 32 21 33 19 34
REMARK H PARENT 6 2 29 14 29 15
ROOT
ATOM      1  N   UNL     1     -29.831  -3.884  28.402  1.00  0.00    -0.324 N 
ATOM      2  H   UNL     1     -29.989  -4.751  27.909  1.00  0.00     0.170 HD
ENDROOT
BRANCH   1   3
ATOM      3  C   UNL     1     -30.186  -3.845  29.753  1.00  0.00     0.042 A 
ATOM      4  C   UNL     1     -31.051  -3.824  32.476  1.00  0.00    -0.031 A 
ATOM      5  C   UNL     1     -31.974  -3.704  31.424  1.00  0.00     0.087 A 
ATOM      6  C   UNL     1     -29.697  -3.958  32.140  1.00  0.00     0.007 A 
ATOM      7  C   UNL     1     -31.541  -3.714  30.086  1.00  0.00     0.048 A 
ATOM      8  C   UNL     1     -29.278  -3.979  30.803  1.00  0.00     0.026 A 
ATOM      9  C   UNL     1     -31.429  -3.776  33.930  1.00  0.00     0.046 C 
BRANCH   5  10
ATOM     10  S   UNL     1     -33.722  -3.538  31.720  1.00  0.00     0.238 S 
ATOM     11  O   UNL     1     -34.213  -4.732  32.364  1.00  0.00    -0.207 OA
ATOM     12  O   UNL     1     -33.979  -2.220  32.256  1.00  0.00    -0.207 OA
BRANCH  10  13
ATOM     13  N   UNL     1     -34.333  -3.487  30.149  1.00  0.00    -0.225 NA
ATOM     14  H   UNL     1     -33.796  -4.055  29.495  1.00  0.00     0.137 HD
ATOM     15  H   UNL     1     -34.371  -2.510  29.851  1.00  0.00     0.137 HD
ENDBRANCH  10  13
ENDBRANCH   5  10
ENDBRANCH   1   3
BRANCH   1  16
ATOM     16  C   UNL     1     -29.423  -2.923  27.480  1.00  0.00     0.229 A 
ATOM     17  N   UNL     1     -28.278  -3.037  26.798  1.00  0.00    -0.221 NA
ATOM     18  N   UNL     1     -30.277  -1.898  27.324  1.00  0.00    -0.195 NA
ATOM     19  C   UNL     1     -27.992  -2.062  25.922  1.00  0.00     0.119 A 
ATOM     20  C   UNL     1     -29.966  -0.913  26.455  1.00  0.00     0.138 A 
ATOM     21  C   UNL     1     -28.805  -0.979  25.707  1.00  0.00     0.067 A 
BRANCH  20  22
ATOM     22  N   UNL     1     -30.858   0.179  26.256  1.00  0.00    -0.329 N 
ATOM     23  C   UNL     1     -32.072   0.087  27.078  1.00  0.00     0.152 C 
BRANCH  22  24
ATOM     24  C   UNL     1     -30.456   1.543  26.087  1.00  0.00     0.044 A 
ATOM     25  C   UNL     1     -30.507   2.155  24.808  1.00  0.00     0.057 A 
ATOM     26  C   UNL     1     -30.000   2.254  27.255  1.00  0.00     0.027 A 
ATOM     27  C   UNL     1     -30.084   3.494  24.787  1.00  0.00     0.095 A 
ATOM     28  C   UNL     1     -29.568   3.598  27.261  1.00  0.00     0.014 A 
ATOM     29  N   UNL     1     -30.010   4.352  23.759  1.00  0.00    -0.173 NA
ATOM     30  C   UNL     1     -29.641   4.153  25.989  1.00  0.00     0.023 A 
ATOM     31  N   UNL     1     -29.531   5.496  24.292  1.00  0.00    -0.272 N 
ATOM     32  C   UNL     1     -29.297   5.439  25.646  1.00  0.00     0.043 A 
ATOM     33  C   UNL     1     -29.326   6.634  23.425  1.00  0.00     0.174 C 
ATOM     34  C   UNL     1     -28.782   6.589  26.428  1.00  0.00     0.067 C 
ENDBRANCH  22  24
ENDBRANCH  20  22
ENDBRANCH   1  16
TORSDOF 6
ENDMDL
MODEL 2
REMARK VINA RESULT:      -6.4      2.519      3.300
REMARK SMILES Cc1ccc(Nc2nccc(N(C)c3ccc4c(C)n(C)nc4c3)n2)cc1S(N)(=O)=O
REMARK SMILES IDX 6 1 5 3 2 4 27 5 3 6 26 7 4 8 1 9 28 10 30 11 31 12 29 13
REMARK SMILES IDX 7 16 8 17 25 18 9 19 11 20 10 21 12 22 13 23 14 24 24 25
REMARK SMILES IDX 15 26 23 27 16 28 22 29 17 30 20 31 18 32 21 33 19 34
REMARK H PARENT 6 2 29 14 29 15
ROOT
ATOM      1  N   UNL     1     -28.893  -4.416  29.258  1.00  0.00    -0.324 N 
ATOM      2  H   UNL     1     -28.084  -5.013  29.168  1.00  0.00     0.170 HD
ENDROOT
BRANCH   1   3
ATOM      3  C   UNL     1     -29.411  -4.233  30.543  1.00  0.00     0.042 A 
ATOM      4  C   UNL     1     -30.605  -3.929  33.122  1.00  0.00    -0.031 A 
ATOM      5  C   UNL     1     -31.393  -3.950  31.959  1.00  0.00     0.087 A 
ATOM      6  C   UNL     1     -29.218  -4.066  32.970  1.00  0.00     0.007 A 
ATOM      7  C   UNL     1     -30.799  -4.100  30.693  1.00  0.00     0.048 A 
ATOM      8  C   UNL     1     -28.638  -4.227  31.704  1.00  0.00     0.026 A 
ATOM      9  C   UNL     1     -31.159  -3.727  34.504  1.00  0.00     0.046 C 
BRANCH   5  10
ATOM     10  S   UNL     1     -33.166  -3.796  32.021  1.00  0.00     0.238 S 
ATOM     11  O   UNL     1     -33.714  -4.885  32.792  1.00  0.00    -0.207 OA
ATOM     12  O   UNL     1     -33.501  -2.417  32.300  1.00  0.00    -0.207 OA
BRANCH  10  13
ATOM     13  N   UNL     1     -33.586  -4.019  30.403  1.00  0.00    -0.225 NA
ATOM     14  H   UNL     1     -34.225  -3.303  30.057  1.00  0.00     0.137 HD
ATOM     15  H   UNL     1     -33.983  -4.954  30.300  1.00  0.00     0.137 HD
ENDBRANCH  10  13
ENDBRANCH   5  10
ENDBRANCH   1   3
BRANCH   1  16
ATOM     16  C   UNL     1     -29.330  -4.072  27.981  1.00  0.00     0.229 A 
ATOM     17  N   UNL     1     -29.798  -4.985  27.123  1.00  0.00    -0.221 NA
ATOM     18  N   UNL     1     -29.259  -2.761  27.698  1.00  0.00    -0.195 NA
ATOM     19  C   UNL     1     -30.209  -4.540  25.926  1.00  0.00     0.119 A 
ATOM     20  C   UNL     1     -29.656  -2.331  26.482  1.00  0.00     0.138 A 
ATOM     21  C   UNL     1     -30.165  -3.221  25.556  1.00  0.00     0.067 A 
BRANCH  20  22
ATOM     22  N   UNL     1     -29.608  -0.945  26.158  1.00  0.00    -0.329 N 
ATOM     23  C   UNL     1     -29.332  -0.695  24.737  1.00  0.00     0.152 C 
BRANCH  22  24
ATOM     24  C   UNL     1     -30.491   0.050  26.691  1.00  0.00     0.044 A 
ATOM     25  C   UNL     1     -31.842  -0.269  26.981  1.00  0.00     0.057 A 
ATOM     26  C   UNL     1     -29.954   1.369  26.913  1.00  0.00     0.027 A 
ATOM     27  C   UNL     1     -32.594   0.799  27.497  1.00  0.00     0.095 A 
ATOM     28  C   UNL     1     -30.686   2.460  27.429  1.00  0.00     0.014 A 
ATOM     29  N   UNL     1     -33.881   0.838  27.873  1.00  0.00    -0.173 NA
ATOM     30  C   UNL     1     -32.001   2.097  27.700  1.00  0.00     0.023 A 
ATOM     31  N   UNL     1     -34.088   2.106  28.282  1.00  0.00    -0.272 N 
ATOM     32  C   UNL     1     -32.978   2.917  28.210  1.00  0.00     0.043 A 
ATOM     33  C   UNL     1     -35.403   2.480  28.750  1.00  0.00     0.174 C 
ATOM     34  C   UNL     1     -32.987   4.341  28.622  1.00  0.00     0.067 C 
ENDBRANCH  22  24
ENDBRANCH  20  22
ENDBRANCH   1  16
TORSDOF 6
ENDMDL
MODEL 3
REMARK VINA RESULT:      -6.3      1.836      2.086
REMARK SMILES Cc1ccc(Nc2nccc(N(C)c3ccc4c(C)n(C)nc4c3)n2)cc1S(N)(=O)=O
REMARK SMILES IDX 6 1 5 3 2 4 27 5 3 6 26 7 4 8 1 9 28 10 30 11 31 12 29 13
REMARK SMILES IDX 7 16 8 17 25 18 9 19 11 20 10 21 12 22 13 23 14 24 24 25
REMARK SMILES IDX 15 26 23 27 16 28 22 29 17 30 20 31 18 32 21 33 19 34
REMARK H PARENT 6 2 29 14 29 15
ROOT
ATOM      1  N   UNL     1     -29.987  -4.088  27.629  1.00  0.00    -0.324 N 
ATOM      2  H   UNL     1     -29.829  -4.900  27.050  1.00  0.00     0.170 HD
ENDROOT
BRANCH   1   3
ATOM      3  C   UNL     1     -30.771  -4.263  28.772  1.00  0.00     0.042 A 
ATOM      4  C   UNL     1     -32.271  -4.533  31.190  1.00  0.00    -0.031 A 
ATOM      5  C   UNL     1     -30.879  -4.349  31.220  1.00  0.00     0.087 A 
ATOM      6  C   UNL     1     -32.894  -4.574  29.934  1.00  0.00     0.007 A 
ATOM      7  C   UNL     1     -30.147  -4.218  30.026  1.00  0.00     0.048 A 
ATOM      8  C   UNL     1     -32.156  -4.430  28.752  1.00  0.00     0.026 A 
ATOM      9  C   UNL     1     -33.117  -4.726  32.417  1.00  0.00     0.046 C 
BRANCH   5  10
ATOM     10  S   UNL     1     -29.974  -4.269  32.752  1.00  0.00     0.238 S 
ATOM     11  O   UNL     1     -30.281  -5.431  33.549  1.00  0.00    -0.207 OA
ATOM     12  O   UNL     1     -28.612  -3.876  32.465  1.00  0.00    -0.207 OA
BRANCH  10  13
ATOM     13  N   UNL     1     -30.663  -2.916  33.487  1.00  0.00    -0.225 NA
ATOM     14  H   UNL     1     -31.244  -3.153  34.291  1.00  0.00     0.137 HD
ATOM     15  H   UNL     1     -31.195  -2.403  32.781  1.00  0.00     0.137 HD
ENDBRANCH  10  13
ENDBRANCH   5  10
ENDBRANCH   1   3
BRANCH   1  16
ATOM     16  C   UNL     1     -29.459  -2.975  26.978  1.00  0.00     0.229 A 
ATOM     17  N   UNL     1     -28.198  -2.947  26.536  1.00  0.00    -0.221 NA
ATOM     18  N   UNL     1     -30.321  -1.957  26.821  1.00  0.00    -0.195 NA
ATOM     19  C   UNL     1     -27.800  -1.831  25.906  1.00  0.00     0.119 A 
ATOM     20  C   UNL     1     -29.900  -0.832  26.205  1.00  0.00     0.138 A 
ATOM     21  C   UNL     1     -28.613  -0.745  25.708  1.00  0.00     0.067 A 
BRANCH  20  22
ATOM     22  N   UNL     1     -30.795   0.258  26.007  1.00  0.00    -0.329 N 
ATOM     23  C   UNL     1     -32.059   0.104  26.741  1.00  0.00     0.152 C 
BRANCH  22  24
ATOM     24  C   UNL     1     -30.405   1.634  25.942  1.00  0.00     0.044 A 
ATOM     25  C   UNL     1     -30.423   2.329  24.705  1.00  0.00     0.057 A 
ATOM     26  C   UNL     1     -29.995   2.271  27.168  1.00  0.00     0.027 A 
ATOM     27  C   UNL     1     -30.016   3.671  24.786  1.00  0.00     0.095 A 
ATOM     28  C   UNL     1     -29.580   3.616  27.277  1.00  0.00     0.014 A 
ATOM     29  N   UNL     1     -29.920   4.596  23.819  1.00  0.00    -0.173 NA
ATOM     30  C   UNL     1     -29.619   4.253  26.042  1.00  0.00     0.023 A 
ATOM     31  N   UNL     1     -29.473   5.706  24.442  1.00  0.00    -0.272 N 
ATOM     32  C   UNL     1     -29.281   5.563  25.797  1.00  0.00     0.043 A 
ATOM     33  C   UNL     1     -29.255   6.902  23.659  1.00  0.00     0.174 C 
ATOM     34  C   UNL     1     -28.806   6.664  26.669  1.00  0.00     0.067 C 
ENDBRANCH  22  24
ENDBRANCH  20  22
ENDBRANCH   1  16
TORSDOF 6
ENDMDL
MODEL 4
REMARK VINA RESULT:      -6.1      4.027      8.707
REMARK SMILES Cc1ccc(Nc2nccc(N(C)c3ccc4c(C)n(C)nc4c3)n2)cc1S(N)(=O)=O
REMARK SMILES IDX 6 1 5 3 2 4 27 5 3 6 26 7 4 8 1 9 28 10 30 11 31 12 29 13
REMARK SMILES IDX 7 16 8 17 25 18 9 19 11 20 10 21 12 22 13 23 14 24 24 25
REMARK SMILES IDX 15 26 23 27 16 28 22 29 17 30 20 31 18 32 21 33 19 34
REMARK H PARENT 6 2 29 14 29 15
ROOT
ATOM      1  N   UNL     1     -33.584  -0.619  28.076  1.00  0.00    -0.324 N 
ATOM      2  H   UNL     1     -34.395  -0.651  27.475  1.00  0.00     0.170 HD
ENDROOT
BRANCH   1   3
ATOM      3  C   UNL     1     -32.332  -0.718  27.464  1.00  0.00     0.042 A 
ATOM      4  C   UNL     1     -29.806  -1.068  26.175  1.00  0.00    -0.031 A 
ATOM      5  C   UNL     1     -30.479  -2.157  26.753  1.00  0.00     0.087 A 
ATOM      6  C   UNL     1     -30.420   0.190  26.250  1.00  0.00     0.007 A 
ATOM      7  C   UNL     1     -31.721  -1.977  27.387  1.00  0.00     0.048 A 
ATOM      8  C   UNL     1     -31.665   0.355  26.873  1.00  0.00     0.026 A 
ATOM      9  C   UNL     1     -28.457  -1.170  25.521  1.00  0.00     0.046 C 
BRANCH   5  10
ATOM     10  S   UNL     1     -29.807  -3.806  26.715  1.00  0.00     0.238 S 
ATOM     11  O   UNL     1     -29.779  -4.278  25.352  1.00  0.00    -0.207 OA
ATOM     12  O   UNL     1     -28.638  -3.850  27.564  1.00  0.00    -0.207 OA
BRANCH  10  13
ATOM     13  N   UNL     1     -30.981  -4.674  27.560  1.00  0.00    -0.225 NA
ATOM     14  H   UNL     1     -31.394  -4.142  28.325  1.00  0.00     0.137 HD
ATOM     15  H   UNL     1     -30.560  -5.542  27.894  1.00  0.00     0.137 HD
ENDBRANCH  10  13
ENDBRANCH   5  10
ENDBRANCH   1   3
BRANCH   1  16
ATOM     16  C   UNL     1     -34.018  -0.633  29.400  1.00  0.00     0.229 A 
ATOM     17  N   UNL     1     -34.735   0.370  29.920  1.00  0.00    -0.221 NA
ATOM     18  N   UNL     1     -33.675  -1.732  30.091  1.00  0.00    -0.195 NA
ATOM     19  C   UNL     1     -35.116   0.243  31.200  1.00  0.00     0.119 A 
ATOM     20  C   UNL     1     -34.047  -1.835  31.384  1.00  0.00     0.138 A 
ATOM     21  C   UNL     1     -34.804  -0.842  31.977  1.00  0.00     0.067 A 
BRANCH  20  22
ATOM     22  N   UNL     1     -33.713  -2.996  32.138  1.00  0.00    -0.329 N 
ATOM     23  C   UNL     1     -34.755  -4.031  32.092  1.00  0.00     0.152 C 
BRANCH  22  24
ATOM     24  C   UNL     1     -32.408  -3.584  32.199  1.00  0.00     0.044 A 
ATOM     25  C   UNL     1     -31.850  -4.215  31.057  1.00  0.00     0.057 A 
ATOM     26  C   UNL     1     -31.701  -3.511  33.452  1.00  0.00     0.027 A 
ATOM     27  C   UNL     1     -30.566  -4.748  31.257  1.00  0.00     0.095 A 
ATOM     28  C   UNL     1     -30.412  -4.039  33.681  1.00  0.00     0.014 A 
ATOM     29  N   UNL     1     -29.766  -5.398  30.398  1.00  0.00    -0.173 NA
ATOM     30  C   UNL     1     -29.907  -4.642  32.534  1.00  0.00     0.023 A 
ATOM     31  N   UNL     1     -28.659  -5.695  31.110  1.00  0.00    -0.272 N 
ATOM     32  C   UNL     1     -28.681  -5.252  32.412  1.00  0.00     0.043 A 
ATOM     33  C   UNL     1     -27.587  -6.415  30.459  1.00  0.00     0.174 C 
ATOM     34  C   UNL     1     -27.561  -5.463  33.360  1.00  0.00     0.067 C 
ENDBRANCH  22  24
ENDBRANCH  20  22
ENDBRANCH   1  16
TORSDOF 6
ENDMDL
MODEL 5
REMARK VINA RESULT:      -5.9      2.145      3.513
REMARK SMILES Cc1ccc(Nc2nccc(N(C)c3ccc4c(C)n(C)nc4c3)n2)cc1S(N)(=O)=O
REMARK SMILES IDX 6 1 5 3 2 4 27 5 3 6 26 7 4 8 1 9 28 10 30 11 31 12 29 13
REMARK SMILES IDX 7 16 8 17 25 18 9 19 11 20 10 21 12 22 13 23 14 24 24 25
REMARK SMILES IDX 15 26 23 27 16 28 22 29 17 30 20 31 18 32 21 33 19 34
REMARK H PARENT 6 2 29 14 29 15
ROOT
ATOM      1  N   UNL     1     -33.395  -3.065  29.006  1.00  0.00    -0.324 N 
ATOM      2  H   UNL     1     -33.981  -3.782  28.603  1.00  0.00     0.170 HD
ENDROOT
BRANCH   1   3
ATOM      3  C   UNL     1     -32.897  -3.297  30.291  1.00  0.00     0.042 A 
ATOM      4  C   UNL     1     -31.733  -3.738  32.863  1.00  0.00    -0.031 A 
ATOM      5  C   UNL     1     -30.994  -3.958  31.689  1.00  0.00     0.087 A 
ATOM      6  C   UNL     1     -33.055  -3.292  32.726  1.00  0.00     0.007 A 
ATOM      7  C   UNL     1     -31.573  -3.739  30.426  1.00  0.00     0.048 A 
ATOM      8  C   UNL     1     -33.618  -3.066  31.463  1.00  0.00     0.026 A 
ATOM      9  C   UNL     1     -31.201  -3.992  34.246  1.00  0.00     0.046 C 
BRANCH   5  10
ATOM     10  S   UNL     1     -29.303  -4.514  31.732  1.00  0.00     0.238 S 
ATOM     11  O   UNL     1     -28.515  -3.590  32.510  1.00  0.00    -0.207 OA
ATOM     12  O   UNL     1     -29.290  -5.937  31.990  1.00  0.00    -0.207 OA
BRANCH  10  13
ATOM     13  N   UNL     1     -28.854  -4.371  30.112  1.00  0.00    -0.225 NA
ATOM     14  H   UNL     1     -28.507  -5.244  29.717  1.00  0.00     0.137 HD
ATOM     15  H   UNL     1     -28.159  -3.625  30.037  1.00  0.00     0.137 HD
ENDBRANCH  10  13
ENDBRANCH   5  10
ENDBRANCH   1   3
BRANCH   1  16
ATOM     16  C   UNL     1     -33.400  -1.963  28.154  1.00  0.00     0.229 A 
ATOM     17  N   UNL     1     -34.529  -1.322  27.833  1.00  0.00    -0.221 NA
ATOM     18  N   UNL     1     -32.188  -1.595  27.707  1.00  0.00    -0.195 NA
ATOM     19  C   UNL     1     -34.416  -0.262  27.019  1.00  0.00     0.119 A 
ATOM     20  C   UNL     1     -32.092  -0.539  26.872  1.00  0.00     0.138 A 
ATOM     21  C   UNL     1     -33.219   0.177  26.514  1.00  0.00     0.067 A 
BRANCH  20  22
ATOM     22  N   UNL     1     -30.819  -0.114  26.394  1.00  0.00    -0.329 N 
ATOM     23  C   UNL     1     -30.175  -1.101  25.517  1.00  0.00     0.152 C 
BRANCH  22  24
ATOM     24  C   UNL     1     -30.506   1.221  25.980  1.00  0.00     0.044 A 
ATOM     25  C   UNL     1     -30.036   2.174  26.920  1.00  0.00     0.057 A 
ATOM     26  C   UNL     1     -30.692   1.549  24.589  1.00  0.00     0.027 A 
ATOM     27  C   UNL     1     -29.769   3.442  26.378  1.00  0.00     0.095 A 
ATOM     28  C   UNL     1     -30.432   2.814  24.019  1.00  0.00     0.014 A 
ATOM     29  N   UNL     1     -29.318   4.553  26.980  1.00  0.00    -0.173 NA
ATOM     30  C   UNL     1     -29.971   3.710  24.977  1.00  0.00     0.023 A 
ATOM     31  N   UNL     1     -29.251   5.478  26.001  1.00  0.00    -0.272 N 
ATOM     32  C   UNL     1     -29.625   5.022  24.758  1.00  0.00     0.043 A 
ATOM     33  C   UNL     1     -28.798   6.810  26.333  1.00  0.00     0.174 C 
ATOM     34  C   UNL     1     -29.613   5.874  23.544  1.00  0.00     0.067 C 
ENDBRANCH  22  24
ENDBRANCH  20  22
ENDBRANCH   1  16
TORSDOF 6
ENDMDL
MODEL 6
REMARK VINA RESULT:      -5.9     14.069     16.342
REMARK SMILES Cc1ccc(Nc2nccc(N(C)c3ccc4c(C)n(C)nc4c3)n2)cc1S(N)(=O)=O
REMARK SMILES IDX 6 1 5 3 2 4 27 5 3 6 26 7 4 8 1 9 28 10 30 11 31 12 29 13
REMARK SMILES IDX 7 16 8 17 25 18 9 19 11 20 10 21 12 22 13 23 14 24 24 25
REMARK SMILES IDX 15 26 23 27 16 28 22 29 17 30 20 31 18 32 21 33 19 34
REMARK H PARENT 6 2 29 14 29 15
ROOT
ATOM      1  N   UNL     1     -19.152  -3.548  16.424  1.00  0.00    -0.324 N 
ATOM      2  H   UNL     1     -18.363  -4.089  16.748  1.00  0.00     0.170 HD
ENDROOT
BRANCH   1   3
ATOM      3  C   UNL     1     -20.420  -3.957  16.843  1.00  0.00     0.042 A 
ATOM      4  C   UNL     1     -23.008  -4.684  17.815  1.00  0.00    -0.031 A 
ATOM      5  C   UNL     1     -22.035  -4.154  18.678  1.00  0.00     0.087 A 
ATOM      6  C   UNL     1     -22.664  -4.838  16.464  1.00  0.00     0.007 A 
ATOM      7  C   UNL     1     -20.763  -3.799  18.194  1.00  0.00     0.048 A 
ATOM      8  C   UNL     1     -21.398  -4.469  15.990  1.00  0.00     0.026 A 
ATOM      9  C   UNL     1     -24.371  -5.129  18.264  1.00  0.00     0.046 C 
BRANCH   5  10
ATOM     10  S   UNL     1     -22.353  -3.901  20.412  1.00  0.00     0.238 S 
ATOM     11  O   UNL     1     -23.268  -2.798  20.573  1.00  0.00    -0.207 OA
ATOM     12  O   UNL     1     -22.587  -5.186  21.032  1.00  0.00    -0.207 OA
BRANCH  10  13
ATOM     13  N   UNL     1     -20.835  -3.425  20.973  1.00  0.00    -0.225 NA
ATOM     14  H   UNL     1     -20.401  -4.119  21.582  1.00  0.00     0.137 HD
ATOM     15  H   UNL     1     -20.935  -2.525  21.446  1.00  0.00     0.137 HD
ENDBRANCH  10  13
ENDBRANCH   5  10
ENDBRANCH   1   3
BRANCH   1  16
ATOM     16  C   UNL     1     -18.693  -2.611  15.501  1.00  0.00     0.229 A 
ATOM     17  N   UNL     1     -17.647  -2.858  14.703  1.00  0.00    -0.221 NA
ATOM     18  N   UNL     1     -19.392  -1.465  15.470  1.00  0.00    -0.195 NA
ATOM     19  C   UNL     1     -17.303  -1.892  13.838  1.00  0.00     0.119 A 
ATOM     20  C   UNL     1     -19.020  -0.494  14.610  1.00  0.00     0.138 A 
ATOM     21  C   UNL     1     -17.959  -0.692  13.746  1.00  0.00     0.067 A 
BRANCH  20  22
ATOM     22  N   UNL     1     -19.752   0.726  14.541  1.00  0.00    -0.329 N 
ATOM     23  C   UNL     1     -20.908   0.754  15.448  1.00  0.00     0.152 C 
BRANCH  22  24
ATOM     24  C   UNL     1     -19.164   2.026  14.418  1.00  0.00     0.044 A 
ATOM     25  C   UNL     1     -19.299   2.766  13.216  1.00  0.00     0.057 A 
ATOM     26  C   UNL     1     -18.437   2.539  15.552  1.00  0.00     0.027 A 
ATOM     27  C   UNL     1     -18.674   4.023  13.234  1.00  0.00     0.095 A 
ATOM     28  C   UNL     1     -17.798   3.797  15.596  1.00  0.00     0.014 A 
ATOM     29  N   UNL     1     -18.612   4.962  12.277  1.00  0.00    -0.173 NA
ATOM     30  C   UNL     1     -17.963   4.484  14.399  1.00  0.00     0.023 A 
ATOM     31  N   UNL     1     -17.884   5.962  12.816  1.00  0.00    -0.272 N 
ATOM     32  C   UNL     1     -17.470   5.734  14.108  1.00  0.00     0.043 A 
ATOM     33  C   UNL     1     -17.626   7.140  12.020  1.00  0.00     0.174 C 
ATOM     34  C   UNL     1     -16.670   6.710  14.887  1.00  0.00     0.067 C 
ENDBRANCH  22  24
ENDBRANCH  20  22
ENDBRANCH   1  16
TORSDOF 6
ENDMDL
MODEL 7
REMARK VINA RESULT:      -5.9     18.558     20.735
REMARK SMILES Cc1ccc(Nc2nccc(N(C)c3ccc4c(C)n(C)nc4c3)n2)cc1S(N)(=O)=O
REMARK SMILES IDX 6 1 5 3 2 4 27 5 3 6 26 7 4 8 1 9 28 10 30 11 31 12 29 13
REMARK SMILES IDX 7 16 8 17 25 18 9 19 11 20 10 21 12 22 13 23 14 24 24 25
REMARK SMILES IDX 15 26 23 27 16 28 22 29 17 30 20 31 18 32 21 33 19 34
REMARK H PARENT 6 2 29 14 29 15
ROOT
ATOM      1  N   UNL     1     -16.209  -2.649  12.991  1.00  0.00    -0.324 N 
ATOM      2  H   UNL     1     -15.728  -1.856  12.591  1.00  0.00     0.170 HD
ENDROOT
BRANCH   1   3
ATOM      3  C   UNL     1     -15.806  -3.919  12.571  1.00  0.00     0.042 A 
ATOM      4  C   UNL     1     -14.904  -6.532  11.849  1.00  0.00    -0.031 A 
ATOM      5  C   UNL     1     -14.158  -5.728  12.727  1.00  0.00     0.087 A 
ATOM      6  C   UNL     1     -16.103  -6.008  11.348  1.00  0.00     0.007 A 
ATOM      7  C   UNL     1     -14.607  -4.442  13.077  1.00  0.00     0.048 A 
ATOM      8  C   UNL     1     -16.547  -4.731  11.713  1.00  0.00     0.026 A 
ATOM      9  C   UNL     1     -14.469  -7.896  11.392  1.00  0.00     0.046 C 
BRANCH   5  10
ATOM     10  S   UNL     1     -12.623  -6.284  13.439  1.00  0.00     0.238 S 
ATOM     11  O   UNL     1     -12.903  -7.155  14.554  1.00  0.00    -0.207 OA
ATOM     12  O   UNL     1     -11.730  -6.671  12.370  1.00  0.00    -0.207 OA
BRANCH  10  13
ATOM     13  N   UNL     1     -11.979  -4.843  14.033  1.00  0.00    -0.225 NA
ATOM     14  H   UNL     1     -10.964  -4.798  13.951  1.00  0.00     0.137 HD
ATOM     15  H   UNL     1     -12.280  -4.732  15.003  1.00  0.00     0.137 HD
ENDBRANCH  10  13
ENDBRANCH   5  10
ENDBRANCH   1   3
BRANCH   1  16
ATOM     16  C   UNL     1     -17.270  -2.176  13.761  1.00  0.00     0.229 A 
ATOM     17  N   UNL     1     -17.544  -2.676  14.971  1.00  0.00    -0.221 NA
ATOM     18  N   UNL     1     -17.969  -1.177  13.198  1.00  0.00    -0.195 NA
ATOM     19  C   UNL     1     -18.577  -2.133  15.633  1.00  0.00     0.119 A 
ATOM     20  C   UNL     1     -19.020  -0.656  13.867  1.00  0.00     0.138 A 
ATOM     21  C   UNL     1     -19.345  -1.116  15.129  1.00  0.00     0.067 A 
BRANCH  20  22
ATOM     22  N   UNL     1     -19.771   0.416  13.304  1.00  0.00    -0.329 N 
ATOM     23  C   UNL     1     -21.207   0.330  13.603  1.00  0.00     0.152 C 
BRANCH  22  24
ATOM     24  C   UNL     1     -19.337   1.780  13.255  1.00  0.00     0.044 A 
ATOM     25  C   UNL     1     -18.722   2.380  14.383  1.00  0.00     0.057 A 
ATOM     26  C   UNL     1     -19.555   2.505  12.028  1.00  0.00     0.027 A 
ATOM     27  C   UNL     1     -18.347   3.721  14.196  1.00  0.00     0.095 A 
ATOM     28  C   UNL     1     -19.190   3.852  11.814  1.00  0.00     0.014 A 
ATOM     29  N   UNL     1     -17.750   4.569  15.046  1.00  0.00    -0.173 NA
ATOM     30  C   UNL     1     -18.589   4.393  12.945  1.00  0.00     0.023 A 
ATOM     31  N   UNL     1     -17.633   5.726  14.361  1.00  0.00    -0.272 N 
ATOM     32  C   UNL     1     -18.115   5.677  13.073  1.00  0.00     0.043 A 
ATOM     33  C   UNL     1     -17.024   6.862  15.015  1.00  0.00     0.174 C 
ATOM     34  C   UNL     1     -18.072   6.835  12.148  1.00  0.00     0.067 C 
ENDBRANCH  22  24
ENDBRANCH  20  22
ENDBRANCH   1  16
TORSDOF 6
ENDMDL
MODEL 8
REMARK VINA RESULT:      -5.8      3.736      9.458
REMARK SMILES Cc1ccc(Nc2nccc(N(C)c3ccc4c(C)n(C)nc4c3)n2)cc1S(N)(=O)=O
REMARK SMILES IDX 6 1 5 3 2 4 27 5 3 6 26 7 4 8 1 9 28 10 30 11 31 12 29 13
REMARK SMILES IDX 7 16 8 17 25 18 9 19 11 20 10 21 12 22 13 23 14 24 24 25
REMARK SMILES IDX 15 26 23 27 16 28 22 29 17 30 20 31 18 32 21 33 19 34
REMARK H PARENT 6 2 29 14 29 15
ROOT
ATOM      1  N   UNL     1     -28.898  -2.123  26.580  1.00  0.00    -0.324 N 
ATOM      2  H   UNL     1     -27.943  -2.050  26.902  1.00  0.00     0.170 HD
ENDROOT
BRANCH   1   3
ATOM      3  C   UNL     1     -29.373  -1.101  25.755  1.00  0.00     0.042 A 
ATOM      4  C   UNL     1     -30.279   1.095  24.166  1.00  0.00    -0.031 A 
ATOM      5  C   UNL     1     -30.091   1.235  25.551  1.00  0.00     0.087 A 
ATOM      6  C   UNL     1     -30.002  -0.155  23.596  1.00  0.00     0.007 A 
ATOM      7  C   UNL     1     -29.645   0.150  26.328  1.00  0.00     0.048 A 
ATOM      8  C   UNL     1     -29.547  -1.226  24.377  1.00  0.00     0.026 A 
ATOM      9  C   UNL     1     -30.795   2.192  23.277  1.00  0.00     0.046 C 
BRANCH   5  10
ATOM     10  S   UNL     1     -30.398   2.775  26.392  1.00  0.00     0.238 S 
ATOM     11  O   UNL     1     -29.556   3.802  25.829  1.00  0.00    -0.207 OA
ATOM     12  O   UNL     1     -31.826   2.948  26.534  1.00  0.00    -0.207 OA
BRANCH  10  13
ATOM     13  N   UNL     1     -29.853   2.429  27.950  1.00  0.00    -0.225 NA
ATOM     14  H   UNL     1     -29.664   1.438  28.095  1.00  0.00     0.137 HD
ATOM     15  H   UNL     1     -30.544   2.778  28.617  1.00  0.00     0.137 HD
ENDBRANCH  10  13
ENDBRANCH   5  10
ENDBRANCH   1   3
BRANCH   1  16
ATOM     16  C   UNL     1     -29.496  -3.206  27.221  1.00  0.00     0.229 A 
ATOM     17  N   UNL     1     -29.556  -4.417  26.656  1.00  0.00    -0.221 NA
ATOM     18  N   UNL     1     -29.981  -2.936  28.444  1.00  0.00    -0.195 NA
ATOM     19  C   UNL     1     -30.138  -5.392  27.370  1.00  0.00     0.119 A 
ATOM     20  C   UNL     1     -30.583  -3.922  29.142  1.00  0.00     0.138 A 
ATOM     21  C   UNL     1     -30.664  -5.200  28.622  1.00  0.00     0.067 A 
BRANCH  20  22
ATOM     22  N   UNL     1     -31.093  -3.671  30.448  1.00  0.00    -0.329 N 
ATOM     23  C   UNL     1     -32.552  -3.816  30.533  1.00  0.00     0.152 C 
BRANCH  22  24
ATOM     24  C   UNL     1     -30.464  -4.089  31.665  1.00  0.00     0.044 A 
ATOM     25  C   UNL     1     -29.061  -3.960  31.830  1.00  0.00     0.057 A 
ATOM     26  C   UNL     1     -31.306  -4.641  32.696  1.00  0.00     0.027 A 
ATOM     27  C   UNL     1     -28.579  -4.409  33.070  1.00  0.00     0.095 A 
ATOM     28  C   UNL     1     -30.848  -5.100  33.949  1.00  0.00     0.014 A 
ATOM     29  N   UNL     1     -27.324  -4.428  33.545  1.00  0.00    -0.173 NA
ATOM     30  C   UNL     1     -29.470  -4.950  34.064  1.00  0.00     0.023 A 
ATOM     31  N   UNL     1     -27.425  -4.967  34.777  1.00  0.00    -0.272 N 
ATOM     32  C   UNL     1     -28.707  -5.295  35.154  1.00  0.00     0.043 A 
ATOM     33  C   UNL     1     -26.223  -5.134  35.563  1.00  0.00     0.174 C 
ATOM     34  C   UNL     1     -29.038  -5.888  36.472  1.00  0.00     0.067 C 
ENDBRANCH  22  24
ENDBRANCH  20  22
ENDBRANCH   1  16
TORSDOF 6
ENDMDL
MODEL 9
REMARK VINA RESULT:      -5.8      7.057     12.118
REMARK SMILES Cc1ccc(Nc2nccc(N(C)c3ccc4c(C)n(C)nc4c3)n2)cc1S(N)(=O)=O
REMARK SMILES IDX 6 1 5 3 2 4 27 5 3 6 26 7 4 8 1 9 28 10 30 11 31 12 29 13
REMARK SMILES IDX 7 16 8 17 25 18 9 19 11 20 10 21 12 22 13 23 14 24 24 25
REMARK SMILES IDX 15 26 23 27 16 28 22 29 17 30 20 31 18 32 21 33 19 34
REMARK H PARENT 6 2 29 14 29 15
ROOT
ATOM      1  N   UNL     1     -25.379   9.320  25.520  1.00  0.00    -0.324 N 
ATOM      2  H   UNL     1     -25.751  10.252  25.411  1.00  0.00     0.170 HD
ENDROOT
BRANCH   1   3
ATOM      3  C   UNL     1     -24.287   8.972  24.721  1.00  0.00     0.042 A 
ATOM      4  C   UNL     1     -22.008   8.160  23.200  1.00  0.00    -0.031 A 
ATOM      5  C   UNL     1     -21.994   8.112  24.603  1.00  0.00     0.087 A 
ATOM      6  C   UNL     1     -23.178   8.615  22.577  1.00  0.00     0.007 A 
ATOM      7  C   UNL     1     -23.118   8.514  25.346  1.00  0.00     0.048 A 
ATOM      8  C   UNL     1     -24.298   9.001  23.326  1.00  0.00     0.026 A 
ATOM      9  C   UNL     1     -20.833   7.792  22.338  1.00  0.00     0.046 C 
BRANCH   5  10
ATOM     10  S   UNL     1     -20.570   7.544  25.511  1.00  0.00     0.238 S 
ATOM     11  O   UNL     1     -20.495   6.106  25.428  1.00  0.00    -0.207 OA
ATOM     12  O   UNL     1     -19.444   8.389  25.184  1.00  0.00    -0.207 OA
BRANCH  10  13
ATOM     13  N   UNL     1     -20.979   7.969  27.091  1.00  0.00    -0.225 NA
ATOM     14  H   UNL     1     -20.576   8.861  27.379  1.00  0.00     0.137 HD
ATOM     15  H   UNL     1     -20.691   7.212  27.713  1.00  0.00     0.137 HD
ENDBRANCH  10  13
ENDBRANCH   5  10
ENDBRANCH   1   3
BRANCH   1  16
ATOM     16  C   UNL     1     -26.218   8.608  26.374  1.00  0.00     0.229 A 
ATOM     17  N   UNL     1     -25.953   8.476  27.679  1.00  0.00    -0.221 NA
ATOM     18  N   UNL     1     -27.309   8.091  25.786  1.00  0.00    -0.195 NA
ATOM     19  C   UNL     1     -26.839   7.786  28.412  1.00  0.00     0.119 A 
ATOM     20  C   UNL     1     -28.181   7.381  26.532  1.00  0.00     0.138 A 
ATOM     21  C   UNL     1     -27.974   7.222  27.890  1.00  0.00     0.067 A 
BRANCH  20  22
ATOM     22  N   UNL     1     -29.356   6.834  25.941  1.00  0.00    -0.329 N 
ATOM     23  C   UNL     1     -29.837   7.614  24.792  1.00  0.00     0.152 C 
BRANCH  22  24
ATOM     24  C   UNL     1     -29.600   5.436  25.750  1.00  0.00     0.044 A 
ATOM     25  C   UNL     1     -29.590   4.547  26.854  1.00  0.00     0.057 A 
ATOM     26  C   UNL     1     -29.848   4.979  24.405  1.00  0.00     0.027 A 
ATOM     27  C   UNL     1     -29.844   3.205  26.523  1.00  0.00     0.095 A 
ATOM     28  C   UNL     1     -30.104   3.639  24.045  1.00  0.00     0.014 A 
ATOM     29  N   UNL     1     -29.908   2.125  27.317  1.00  0.00    -0.173 NA
ATOM     30  C   UNL     1     -30.088   2.809  25.160  1.00  0.00     0.023 A 
ATOM     31  N   UNL     1     -30.170   1.096  26.484  1.00  0.00    -0.272 N 
ATOM     32  C   UNL     1     -30.301   1.451  25.162  1.00  0.00     0.043 A 
ATOM     33  C   UNL     1     -30.294  -0.232  27.040  1.00  0.00     0.174 C 
ATOM     34  C   UNL     1     -30.600   0.475  24.086  1.00  0.00     0.067 C 
ENDBRANCH  22  24
ENDBRANCH  20  22
ENDBRANCH   1  16
TORSDOF 6
ENDMDL
