MODEL 1
REMARK VINA RESULT:      -5.5      0.000      0.000
REMARK SMILES CCC(C)(C)C(=O)O[C@H]1C[C@@H](C)C=C2C=C[C@H](C)[C@H](CC[C@@H]3C[C@@H](O)CC(=O)O3)[C@H]21
REMARK SMILES IDX 9 1 10 2 11 3 12 4 13 5 14 6 15 7 16 8 17 9 18 10 19 11
REMARK SMILES IDX 30 12 8 13 6 14 7 15 3 16 4 17 5 18 2 19 1 20 20 21 21 22
REMARK SMILES IDX 22 23 23 24 29 25 24 26 27 27 26 28 28 29 25 30
REMARK H PARENT 25 31
ROOT
ATOM      1  C   UNL     1     -22.422   1.567  16.065  1.00  0.00     0.185 C 
ATOM      2  C   UNL     1     -23.760   2.318  15.984  1.00  0.00     0.053 C 
ATOM      3  C   UNL     1     -23.841   3.544  16.910  1.00  0.00     0.012 C 
ATOM      4  C   UNL     1     -24.444   3.194  18.271  1.00  0.00     0.012 C 
ATOM      5  C   UNL     1     -22.516   4.233  17.104  1.00  0.00    -0.020 C 
ATOM      6  C   UNL     1     -21.348   3.800  16.597  1.00  0.00    -0.045 C 
ATOM      7  C   UNL     1     -20.130   4.535  16.874  1.00  0.00    -0.000 C 
ATOM      8  C   UNL     1     -18.934   4.160  16.401  1.00  0.00    -0.023 C 
ATOM      9  C   UNL     1     -18.729   2.940  15.546  1.00  0.00     0.012 C 
ATOM     10  C   UNL     1     -18.612   3.400  14.086  1.00  0.00     0.012 C 
ATOM     11  C   UNL     1     -19.838   1.876  15.818  1.00  0.00     0.007 C 
ATOM     12  C   UNL     1     -21.254   2.539  15.737  1.00  0.00     0.063 C 
ENDROOT
BRANCH   1  13
ATOM     13  O   UNL     1     -22.220   0.985  17.371  1.00  0.00    -0.461 OA
BRANCH  13  14
ATOM     14  C   UNL     1     -22.571  -0.317  17.530  1.00  0.00     0.311 C 
ATOM     15  O   UNL     1     -22.315  -1.199  16.718  1.00  0.00    -0.252 OA
BRANCH  14  16
ATOM     16  C   UNL     1     -23.332  -0.568  18.842  1.00  0.00     0.062 C 
ATOM     17  C   UNL     1     -24.836  -0.529  18.545  1.00  0.00     0.023 C 
ATOM     18  C   UNL     1     -22.960  -1.998  19.295  1.00  0.00     0.023 C 
BRANCH  16  19
ATOM     19  C   UNL     1     -22.932   0.395  19.995  1.00  0.00     0.015 C 
ATOM     20  C   UNL     1     -23.967   0.611  21.095  1.00  0.00     0.005 C 
ENDBRANCH  16  19
ENDBRANCH  14  16
ENDBRANCH  13  14
ENDBRANCH   1  13
BRANCH  11  21
ATOM     21  C   UNL     1     -19.672   0.655  14.874  1.00  0.00     0.009 C 
BRANCH  21  22
ATOM     22  C   UNL     1     -18.405  -0.183  15.105  1.00  0.00     0.046 C 
BRANCH  22  23
ATOM     23  C   UNL     1     -18.252  -1.350  14.113  1.00  0.00     0.179 C 
ATOM     24  C   UNL     1     -19.200  -2.485  14.467  1.00  0.00     0.077 C 
ATOM     25  O   UNL     1     -16.886  -1.799  14.125  1.00  0.00    -0.462 OA
ATOM     26  C   UNL     1     -18.982  -3.629  13.496  1.00  0.00     0.129 C 
ATOM     27  C   UNL     1     -16.531  -2.947  13.508  1.00  0.00     0.308 C 
ATOM     28  C   UNL     1     -17.534  -4.069  13.491  1.00  0.00     0.154 C 
ATOM     29  O   UNL     1     -15.383  -3.117  13.105  1.00  0.00    -0.252 OA
BRANCH  26  30
ATOM     30  O   UNL     1     -19.387  -3.219  12.192  1.00  0.00    -0.392 OA
ATOM     31  H   UNL     1     -19.123  -2.289  12.071  1.00  0.00     0.210 HD
ENDBRANCH  26  30
ENDBRANCH  22  23
ENDBRANCH  21  22
ENDBRANCH  11  21
TORSDOF 8
ENDMDL
MODEL 2
REMARK VINA RESULT:      -5.4     14.187     17.140
REMARK SMILES CCC(C)(C)C(=O)O[C@H]1C[C@@H](C)C=C2C=C[C@H](C)[C@H](CC[C@@H]3C[C@@H](O)CC(=O)O3)[C@H]21
REMARK SMILES IDX 9 1 10 2 11 3 12 4 13 5 14 6 15 7 16 8 17 9 18 10 19 11
REMARK SMILES IDX 30 12 8 13 6 14 7 15 3 16 4 17 5 18 2 19 1 20 20 21 21 22
REMARK SMILES IDX 22 23 23 24 29 25 24 26 27 27 26 28 28 29 25 30
REMARK H PARENT 25 31
ROOT
ATOM      1  C   UNL     1     -33.815  -0.002  27.698  1.00  0.00     0.185 C 
ATOM      2  C   UNL     1     -35.209   0.625  27.537  1.00  0.00     0.053 C 
ATOM      3  C   UNL     1     -35.403   1.923  28.339  1.00  0.00     0.012 C 
ATOM      4  C   UNL     1     -35.994   1.657  29.724  1.00  0.00     0.012 C 
ATOM      5  C   UNL     1     -34.142   2.734  28.473  1.00  0.00    -0.020 C 
ATOM      6  C   UNL     1     -32.935   2.353  28.017  1.00  0.00    -0.045 C 
ATOM      7  C   UNL     1     -31.785   3.209  28.229  1.00  0.00    -0.000 C 
ATOM      8  C   UNL     1     -30.556   2.891  27.802  1.00  0.00    -0.023 C 
ATOM      9  C   UNL     1     -30.240   1.616  27.070  1.00  0.00     0.012 C 
ATOM     10  C   UNL     1     -30.141   1.942  25.573  1.00  0.00     0.012 C 
ATOM     11  C   UNL     1     -31.262   0.495  27.437  1.00  0.00     0.007 C 
ATOM     12  C   UNL     1     -32.726   1.027  27.284  1.00  0.00     0.063 C 
ENDROOT
BRANCH   1  13
ATOM     13  O   UNL     1     -33.584  -0.437  29.055  1.00  0.00    -0.461 OA
BRANCH  13  14
ATOM     14  C   UNL     1     -33.818  -1.745  29.335  1.00  0.00     0.311 C 
ATOM     15  O   UNL     1     -33.544  -2.667  28.574  1.00  0.00    -0.252 OA
BRANCH  14  16
ATOM     16  C   UNL     1     -34.470  -1.948  30.712  1.00  0.00     0.062 C 
ATOM     17  C   UNL     1     -34.228  -0.689  31.553  1.00  0.00     0.023 C 
ATOM     18  C   UNL     1     -35.988  -2.085  30.462  1.00  0.00     0.023 C 
BRANCH  16  19
ATOM     19  C   UNL     1     -34.009  -3.242  31.441  1.00  0.00     0.015 C 
ATOM     20  C   UNL     1     -32.653  -3.187  32.139  1.00  0.00     0.005 C 
ENDBRANCH  16  19
ENDBRANCH  14  16
ENDBRANCH  13  14
ENDBRANCH   1  13
BRANCH  11  21
ATOM     21  C   UNL     1     -30.984  -0.793  26.617  1.00  0.00     0.009 C 
BRANCH  21  22
ATOM     22  C   UNL     1     -29.583  -1.398  26.805  1.00  0.00     0.046 C 
BRANCH  22  23
ATOM     23  C   UNL     1     -29.607  -2.854  27.307  1.00  0.00     0.179 C 
ATOM     24  C   UNL     1     -30.808  -3.598  26.743  1.00  0.00     0.077 C 
ATOM     25  O   UNL     1     -29.631  -2.854  28.744  1.00  0.00    -0.462 OA
ATOM     26  C   UNL     1     -30.818  -5.008  27.299  1.00  0.00     0.129 C 
ATOM     27  C   UNL     1     -29.871  -3.992  29.432  1.00  0.00     0.308 C 
ATOM     28  C   UNL     1     -30.807  -4.996  28.813  1.00  0.00     0.154 C 
ATOM     29  O   UNL     1     -29.456  -4.134  30.579  1.00  0.00    -0.252 OA
BRANCH  26  30
ATOM     30  O   UNL     1     -29.689  -5.718  26.796  1.00  0.00    -0.392 OA
ATOM     31  H   UNL     1     -28.904  -5.148  26.891  1.00  0.00     0.210 HD
ENDBRANCH  26  30
ENDBRANCH  22  23
ENDBRANCH  21  22
ENDBRANCH  11  21
TORSDOF 8
ENDMDL
MODEL 3
REMARK VINA RESULT:      -5.3     12.710     15.436
REMARK SMILES CCC(C)(C)C(=O)O[C@H]1C[C@@H](C)C=C2C=C[C@H](C)[C@H](CC[C@@H]3C[C@@H](O)CC(=O)O3)[C@H]21
REMARK SMILES IDX 9 1 10 2 11 3 12 4 13 5 14 6 15 7 16 8 17 9 18 10 19 11
REMARK SMILES IDX 30 12 8 13 6 14 7 15 3 16 4 17 5 18 2 19 1 20 20 21 21 22
REMARK SMILES IDX 22 23 23 24 29 25 24 26 27 27 26 28 28 29 25 30
REMARK H PARENT 25 31
ROOT
ATOM      1  C   UNL     1     -33.662   0.828  26.507  1.00  0.00     0.185 C 
ATOM      2  C   UNL     1     -34.859   1.438  27.253  1.00  0.00     0.053 C 
ATOM      3  C   UNL     1     -34.553   1.821  28.711  1.00  0.00     0.012 C 
ATOM      4  C   UNL     1     -34.888   0.688  29.682  1.00  0.00     0.012 C 
ATOM      5  C   UNL     1     -33.131   2.268  28.923  1.00  0.00    -0.020 C 
ATOM      6  C   UNL     1     -32.180   2.269  27.973  1.00  0.00    -0.045 C 
ATOM      7  C   UNL     1     -30.835   2.698  28.304  1.00  0.00    -0.000 C 
ATOM      8  C   UNL     1     -29.841   2.724  27.407  1.00  0.00    -0.023 C 
ATOM      9  C   UNL     1     -30.011   2.304  25.972  1.00  0.00     0.012 C 
ATOM     10  C   UNL     1     -30.151   3.575  25.121  1.00  0.00     0.012 C 
ATOM     11  C   UNL     1     -31.178   1.279  25.827  1.00  0.00     0.007 C 
ATOM     12  C   UNL     1     -32.463   1.818  26.539  1.00  0.00     0.063 C 
ENDROOT
BRANCH   1  13
ATOM     13  O   UNL     1     -33.267  -0.435  27.084  1.00  0.00    -0.461 OA
BRANCH  13  14
ATOM     14  C   UNL     1     -33.933  -1.542  26.667  1.00  0.00     0.311 C 
ATOM     15  O   UNL     1     -34.436  -1.660  25.555  1.00  0.00    -0.252 OA
BRANCH  14  16
ATOM     16  C   UNL     1     -33.994  -2.637  27.745  1.00  0.00     0.062 C 
ATOM     17  C   UNL     1     -35.434  -2.725  28.264  1.00  0.00     0.023 C 
ATOM     18  C   UNL     1     -33.648  -3.966  27.037  1.00  0.00     0.023 C 
BRANCH  16  19
ATOM     19  C   UNL     1     -32.962  -2.448  28.892  1.00  0.00     0.015 C 
ATOM     20  C   UNL     1     -31.887  -3.521  29.028  1.00  0.00     0.005 C 
ENDBRANCH  16  19
ENDBRANCH  14  16
ENDBRANCH  13  14
ENDBRANCH   1  13
BRANCH  11  21
ATOM     21  C   UNL     1     -31.406   0.913  24.335  1.00  0.00     0.009 C 
BRANCH  21  22
ATOM     22  C   UNL     1     -30.181   0.335  23.609  1.00  0.00     0.046 C 
BRANCH  22  23
ATOM     23  C   UNL     1     -29.763  -1.055  24.123  1.00  0.00     0.179 C 
ATOM     24  C   UNL     1     -30.969  -1.819  24.648  1.00  0.00     0.077 C 
ATOM     25  O   UNL     1     -28.769  -0.896  25.150  1.00  0.00    -0.462 OA
ATOM     26  C   UNL     1     -30.505  -3.159  25.186  1.00  0.00     0.129 C 
ATOM     27  C   UNL     1     -28.391  -1.943  25.914  1.00  0.00     0.308 C 
ATOM     28  C   UNL     1     -29.433  -2.980  26.240  1.00  0.00     0.154 C 
ATOM     29  O   UNL     1     -27.283  -1.971  26.442  1.00  0.00    -0.252 OA
BRANCH  26  30
ATOM     30  O   UNL     1     -30.020  -3.954  24.107  1.00  0.00    -0.392 OA
ATOM     31  H   UNL     1     -29.495  -4.686  24.481  1.00  0.00     0.210 HD
ENDBRANCH  26  30
ENDBRANCH  22  23
ENDBRANCH  21  22
ENDBRANCH  11  21
TORSDOF 8
ENDMDL
MODEL 4
REMARK VINA RESULT:      -5.3     13.016     17.837
REMARK SMILES CCC(C)(C)C(=O)O[C@H]1C[C@@H](C)C=C2C=C[C@H](C)[C@H](CC[C@@H]3C[C@@H](O)CC(=O)O3)[C@H]21
REMARK SMILES IDX 9 1 10 2 11 3 12 4 13 5 14 6 15 7 16 8 17 9 18 10 19 11
REMARK SMILES IDX 30 12 8 13 6 14 7 15 3 16 4 17 5 18 2 19 1 20 20 21 21 22
REMARK SMILES IDX 22 23 23 24 29 25 24 26 27 27 26 28 28 29 25 30
REMARK H PARENT 25 31
ROOT
ATOM      1  C   UNL     1     -33.623  -1.728  27.589  1.00  0.00     0.185 C 
ATOM      2  C   UNL     1     -34.133  -3.112  27.157  1.00  0.00     0.053 C 
ATOM      3  C   UNL     1     -33.981  -4.196  28.238  1.00  0.00     0.012 C 
ATOM      4  C   UNL     1     -32.660  -4.955  28.105  1.00  0.00     0.012 C 
ATOM      5  C   UNL     1     -34.120  -3.662  29.640  1.00  0.00    -0.020 C 
ATOM      6  C   UNL     1     -34.283  -2.364  29.951  1.00  0.00    -0.045 C 
ATOM      7  C   UNL     1     -34.379  -1.967  31.342  1.00  0.00    -0.000 C 
ATOM      8  C   UNL     1     -34.542  -0.694  31.722  1.00  0.00    -0.023 C 
ATOM      9  C   UNL     1     -34.632   0.454  30.753  1.00  0.00     0.012 C 
ATOM     10  C   UNL     1     -36.114   0.826  30.599  1.00  0.00     0.012 C 
ATOM     11  C   UNL     1     -33.893   0.117  29.421  1.00  0.00     0.007 C 
ATOM     12  C   UNL     1     -34.360  -1.275  28.880  1.00  0.00     0.063 C 
ENDROOT
BRANCH   1  13
ATOM     13  O   UNL     1     -32.197  -1.739  27.820  1.00  0.00    -0.461 OA
BRANCH  13  14
ATOM     14  C   UNL     1     -31.396  -1.436  26.766  1.00  0.00     0.311 C 
ATOM     15  O   UNL     1     -31.718  -0.676  25.859  1.00  0.00    -0.252 OA
BRANCH  14  16
ATOM     16  C   UNL     1     -30.038  -2.152  26.830  1.00  0.00     0.062 C 
ATOM     17  C   UNL     1     -29.898  -2.803  28.211  1.00  0.00     0.023 C 
ATOM     18  C   UNL     1     -30.084  -3.271  25.765  1.00  0.00     0.023 C 
BRANCH  16  19
ATOM     19  C   UNL     1     -28.829  -1.239  26.481  1.00  0.00     0.015 C 
ATOM     20  C   UNL     1     -28.250  -1.377  25.077  1.00  0.00     0.005 C 
ENDBRANCH  16  19
ENDBRANCH  14  16
ENDBRANCH  13  14
ENDBRANCH   1  13
BRANCH  11  21
ATOM     21  C   UNL     1     -34.060   1.267  28.392  1.00  0.00     0.009 C 
BRANCH  21  22
ATOM     22  C   UNL     1     -33.260   2.542  28.703  1.00  0.00     0.046 C 
BRANCH  22  23
ATOM     23  C   UNL     1     -32.149   2.833  27.678  1.00  0.00     0.179 C 
ATOM     24  C   UNL     1     -30.912   1.997  27.972  1.00  0.00     0.077 C 
ATOM     25  O   UNL     1     -31.838   4.236  27.709  1.00  0.00    -0.462 OA
ATOM     26  C   UNL     1     -29.830   2.349  26.971  1.00  0.00     0.129 C 
ATOM     27  C   UNL     1     -30.753   4.719  27.064  1.00  0.00     0.308 C 
ATOM     28  C   UNL     1     -29.537   3.835  26.987  1.00  0.00     0.154 C 
ATOM     29  O   UNL     1     -30.713   5.886  26.685  1.00  0.00    -0.252 OA
BRANCH  26  30
ATOM     30  O   UNL     1     -30.242   1.933  25.671  1.00  0.00    -0.392 OA
ATOM     31  H   UNL     1     -29.926   1.022  25.529  1.00  0.00     0.210 HD
ENDBRANCH  26  30
ENDBRANCH  22  23
ENDBRANCH  21  22
ENDBRANCH  11  21
TORSDOF 8
ENDMDL
MODEL 5
REMARK VINA RESULT:      -5.2      2.233      6.333
REMARK SMILES CCC(C)(C)C(=O)O[C@H]1C[C@@H](C)C=C2C=C[C@H](C)[C@H](CC[C@@H]3C[C@@H](O)CC(=O)O3)[C@H]21
REMARK SMILES IDX 9 1 10 2 11 3 12 4 13 5 14 6 15 7 16 8 17 9 18 10 19 11
REMARK SMILES IDX 30 12 8 13 6 14 7 15 3 16 4 17 5 18 2 19 1 20 20 21 21 22
REMARK SMILES IDX 22 23 23 24 29 25 24 26 27 27 26 28 28 29 25 30
REMARK H PARENT 25 31
ROOT
ATOM      1  C   UNL     1     -23.012  -0.645  15.913  1.00  0.00     0.185 C 
ATOM      2  C   UNL     1     -23.584  -2.031  15.574  1.00  0.00     0.053 C 
ATOM      3  C   UNL     1     -23.154  -3.137  16.551  1.00  0.00     0.012 C 
ATOM      4  C   UNL     1     -21.890  -3.857  16.081  1.00  0.00     0.012 C 
ATOM      5  C   UNL     1     -22.962  -2.644  17.962  1.00  0.00    -0.020 C 
ATOM      6  C   UNL     1     -23.071  -1.359  18.344  1.00  0.00    -0.045 C 
ATOM      7  C   UNL     1     -22.838  -1.001  19.729  1.00  0.00    -0.000 C 
ATOM      8  C   UNL     1     -22.929   0.258  20.177  1.00  0.00    -0.023 C 
ATOM      9  C   UNL     1     -23.274   1.427  19.295  1.00  0.00     0.012 C 
ATOM     10  C   UNL     1     -24.756   1.763  19.512  1.00  0.00     0.012 C 
ATOM     11  C   UNL     1     -22.870   1.144  17.814  1.00  0.00     0.007 C 
ATOM     12  C   UNL     1     -23.426  -0.246  17.357  1.00  0.00     0.063 C 
ENDROOT
BRANCH   1  13
ATOM     13  O   UNL     1     -21.573  -0.623  15.795  1.00  0.00    -0.461 OA
BRANCH  13  14
ATOM     14  C   UNL     1     -21.056  -0.229  14.603  1.00  0.00     0.311 C 
ATOM     15  O   UNL     1     -21.538   0.659  13.908  1.00  0.00    -0.252 OA
BRANCH  14  16
ATOM     16  C   UNL     1     -19.795  -1.018  14.215  1.00  0.00     0.062 C 
ATOM     17  C   UNL     1     -20.198  -2.111  13.217  1.00  0.00     0.023 C 
ATOM     18  C   UNL     1     -18.859  -0.021  13.497  1.00  0.00     0.023 C 
BRANCH  16  19
ATOM     19  C   UNL     1     -19.011  -1.588  15.430  1.00  0.00     0.015 C 
ATOM     20  C   UNL     1     -17.639  -2.186  15.138  1.00  0.00     0.005 C 
ENDBRANCH  16  19
ENDBRANCH  14  16
ENDBRANCH  13  14
ENDBRANCH   1  13
BRANCH  11  21
ATOM     21  C   UNL     1     -23.303   2.316  16.892  1.00  0.00     0.009 C 
BRANCH  21  22
ATOM     22  C   UNL     1     -22.340   3.514  16.862  1.00  0.00     0.046 C 
BRANCH  22  23
ATOM     23  C   UNL     1     -20.963   3.178  16.262  1.00  0.00     0.179 C 
ATOM     24  C   UNL     1     -19.851   3.835  17.065  1.00  0.00     0.077 C 
ATOM     25  O   UNL     1     -20.931   3.612  14.891  1.00  0.00    -0.462 OA
ATOM     26  C   UNL     1     -18.520   3.519  16.413  1.00  0.00     0.129 C 
ATOM     27  C   UNL     1     -19.771   3.632  14.199  1.00  0.00     0.308 C 
ATOM     28  C   UNL     1     -18.511   3.947  14.960  1.00  0.00     0.154 C 
ATOM     29  O   UNL     1     -19.766   3.541  12.975  1.00  0.00    -0.252 OA
BRANCH  26  30
ATOM     30  O   UNL     1     -18.264   2.121  16.525  1.00  0.00    -0.392 OA
ATOM     31  H   UNL     1     -17.424   2.003  17.006  1.00  0.00     0.210 HD
ENDBRANCH  26  30
ENDBRANCH  22  23
ENDBRANCH  21  22
ENDBRANCH  11  21
TORSDOF 8
ENDMDL
MODEL 6
REMARK VINA RESULT:      -5.0     12.510     16.106
REMARK SMILES CCC(C)(C)C(=O)O[C@H]1C[C@@H](C)C=C2C=C[C@H](C)[C@H](CC[C@@H]3C[C@@H](O)CC(=O)O3)[C@H]21
REMARK SMILES IDX 9 1 10 2 11 3 12 4 13 5 14 6 15 7 16 8 17 9 18 10 19 11
REMARK SMILES IDX 30 12 8 13 6 14 7 15 3 16 4 17 5 18 2 19 1 20 20 21 21 22
REMARK SMILES IDX 22 23 23 24 29 25 24 26 27 27 26 28 28 29 25 30
REMARK H PARENT 25 31
ROOT
ATOM      1  C   UNL     1     -30.943   1.380  27.343  1.00  0.00     0.185 C 
ATOM      2  C   UNL     1     -30.002   2.569  27.593  1.00  0.00     0.053 C 
ATOM      3  C   UNL     1     -30.437   3.865  26.889  1.00  0.00     0.012 C 
ATOM      4  C   UNL     1     -29.793   4.011  25.510  1.00  0.00     0.012 C 
ATOM      5  C   UNL     1     -31.932   4.004  26.769  1.00  0.00    -0.020 C 
ATOM      6  C   UNL     1     -32.820   3.072  27.156  1.00  0.00    -0.045 C 
ATOM      7  C   UNL     1     -34.237   3.309  26.964  1.00  0.00    -0.000 C 
ATOM      8  C   UNL     1     -35.175   2.424  27.327  1.00  0.00    -0.023 C 
ATOM      9  C   UNL     1     -34.859   1.096  27.959  1.00  0.00     0.012 C 
ATOM     10  C   UNL     1     -35.096   1.223  29.470  1.00  0.00     0.012 C 
ATOM     11  C   UNL     1     -33.433   0.611  27.550  1.00  0.00     0.007 C 
ATOM     12  C   UNL     1     -32.386   1.749  27.789  1.00  0.00     0.063 C 
ENDROOT
BRANCH   1  13
ATOM     13  O   UNL     1     -30.947   0.992  25.951  1.00  0.00    -0.461 OA
BRANCH  13  14
ATOM     14  C   UNL     1     -30.057   0.041  25.571  1.00  0.00     0.311 C 
ATOM     15  O   UNL     1     -29.182  -0.409  26.303  1.00  0.00    -0.252 OA
BRANCH  14  16
ATOM     16  C   UNL     1     -30.261  -0.412  24.116  1.00  0.00     0.062 C 
ATOM     17  C   UNL     1     -30.312   0.834  23.224  1.00  0.00     0.023 C 
ATOM     18  C   UNL     1     -29.010  -1.235  23.736  1.00  0.00     0.023 C 
BRANCH  16  19
ATOM     19  C   UNL     1     -31.494  -1.336  23.913  1.00  0.00     0.015 C 
ATOM     20  C   UNL     1     -32.846  -0.646  23.754  1.00  0.00     0.005 C 
ENDBRANCH  16  19
ENDBRANCH  14  16
ENDBRANCH  13  14
ENDBRANCH   1  13
BRANCH  11  21
ATOM     21  C   UNL     1     -33.077  -0.717  28.270  1.00  0.00     0.009 C 
BRANCH  21  22
ATOM     22  C   UNL     1     -32.685  -1.879  27.343  1.00  0.00     0.046 C 
BRANCH  22  23
ATOM     23  C   UNL     1     -31.345  -2.536  27.717  1.00  0.00     0.179 C 
ATOM     24  C   UNL     1     -30.958  -3.590  26.690  1.00  0.00     0.077 C 
ATOM     25  O   UNL     1     -31.455  -3.114  29.029  1.00  0.00    -0.462 OA
ATOM     26  C   UNL     1     -29.659  -4.244  27.122  1.00  0.00     0.129 C 
ATOM     27  C   UNL     1     -30.495  -3.934  29.506  1.00  0.00     0.308 C 
ATOM     28  C   UNL     1     -29.777  -4.816  28.519  1.00  0.00     0.154 C 
ATOM     29  O   UNL     1     -30.317  -4.061  30.715  1.00  0.00    -0.252 OA
BRANCH  26  30
ATOM     30  O   UNL     1     -28.608  -3.282  27.061  1.00  0.00    -0.392 OA
ATOM     31  H   UNL     1     -28.852  -2.607  26.402  1.00  0.00     0.210 HD
ENDBRANCH  26  30
ENDBRANCH  22  23
ENDBRANCH  21  22
ENDBRANCH  11  21
TORSDOF 8
ENDMDL
MODEL 7
REMARK VINA RESULT:      -5.0      2.047      6.565
REMARK SMILES CCC(C)(C)C(=O)O[C@H]1C[C@@H](C)C=C2C=C[C@H](C)[C@H](CC[C@@H]3C[C@@H](O)CC(=O)O3)[C@H]21
REMARK SMILES IDX 9 1 10 2 11 3 12 4 13 5 14 6 15 7 16 8 17 9 18 10 19 11
REMARK SMILES IDX 30 12 8 13 6 14 7 15 3 16 4 17 5 18 2 19 1 20 20 21 21 22
REMARK SMILES IDX 22 23 23 24 29 25 24 26 27 27 26 28 28 29 25 30
REMARK H PARENT 25 31
ROOT
ATOM      1  C   UNL     1     -18.656  -1.394  15.100  1.00  0.00     0.185 C 
ATOM      2  C   UNL     1     -17.337  -2.169  14.948  1.00  0.00     0.053 C 
ATOM      3  C   UNL     1     -17.112  -2.742  13.538  1.00  0.00     0.012 C 
ATOM      4  C   UNL     1     -17.638  -4.172  13.411  1.00  0.00     0.012 C 
ATOM      5  C   UNL     1     -17.700  -1.886  12.447  1.00  0.00    -0.020 C 
ATOM      6  C   UNL     1     -18.422  -0.771  12.655  1.00  0.00    -0.045 C 
ATOM      7  C   UNL     1     -18.959  -0.043  11.522  1.00  0.00    -0.000 C 
ATOM      8  C   UNL     1     -19.685   1.074  11.657  1.00  0.00    -0.023 C 
ATOM      9  C   UNL     1     -20.026   1.683  12.990  1.00  0.00     0.012 C 
ATOM     10  C   UNL     1     -19.072   2.862  13.229  1.00  0.00     0.012 C 
ATOM     11  C   UNL     1     -20.031   0.598  14.112  1.00  0.00     0.007 C 
ATOM     12  C   UNL     1     -18.710  -0.240  14.060  1.00  0.00     0.063 C 
ENDROOT
BRANCH   1  13
ATOM     13  O   UNL     1     -19.800  -2.259  14.928  1.00  0.00    -0.461 OA
BRANCH  13  14
ATOM     14  C   UNL     1     -20.347  -2.793  16.050  1.00  0.00     0.311 C 
ATOM     15  O   UNL     1     -19.693  -3.287  16.962  1.00  0.00    -0.252 OA
BRANCH  14  16
ATOM     16  C   UNL     1     -21.882  -2.715  16.055  1.00  0.00     0.062 C 
ATOM     17  C   UNL     1     -22.338  -2.063  14.743  1.00  0.00     0.023 C 
ATOM     18  C   UNL     1     -22.394  -4.172  16.080  1.00  0.00     0.023 C 
BRANCH  16  19
ATOM     19  C   UNL     1     -22.471  -2.001  17.304  1.00  0.00     0.015 C 
ATOM     20  C   UNL     1     -22.931  -2.898  18.450  1.00  0.00     0.005 C 
ENDBRANCH  16  19
ENDBRANCH  14  16
ENDBRANCH  13  14
ENDBRANCH   1  13
BRANCH  11  21
ATOM     21  C   UNL     1     -20.298   1.243  15.499  1.00  0.00     0.009 C 
BRANCH  21  22
ATOM     22  C   UNL     1     -21.575   2.094  15.588  1.00  0.00     0.046 C 
BRANCH  22  23
ATOM     23  C   UNL     1     -22.648   1.494  16.515  1.00  0.00     0.179 C 
ATOM     24  C   UNL     1     -23.942   2.289  16.427  1.00  0.00     0.077 C 
ATOM     25  O   UNL     1     -22.147   1.477  17.863  1.00  0.00    -0.462 OA
ATOM     26  C   UNL     1     -24.951   1.694  17.389  1.00  0.00     0.129 C 
ATOM     27  C   UNL     1     -22.965   1.201  18.902  1.00  0.00     0.308 C 
ATOM     28  C   UNL     1     -24.399   1.648  18.798  1.00  0.00     0.154 C 
ATOM     29  O   UNL     1     -22.520   0.734  19.947  1.00  0.00    -0.252 OA
BRANCH  26  30
ATOM     30  O   UNL     1     -25.305   0.386  16.947  1.00  0.00    -0.392 OA
ATOM     31  H   UNL     1     -24.487  -0.136  16.858  1.00  0.00     0.210 HD
ENDBRANCH  26  30
ENDBRANCH  22  23
ENDBRANCH  21  22
ENDBRANCH  11  21
TORSDOF 8
ENDMDL
MODEL 8
REMARK VINA RESULT:      -5.0      2.395      6.769
REMARK SMILES CCC(C)(C)C(=O)O[C@H]1C[C@@H](C)C=C2C=C[C@H](C)[C@H](CC[C@@H]3C[C@@H](O)CC(=O)O3)[C@H]21
REMARK SMILES IDX 9 1 10 2 11 3 12 4 13 5 14 6 15 7 16 8 17 9 18 10 19 11
REMARK SMILES IDX 30 12 8 13 6 14 7 15 3 16 4 17 5 18 2 19 1 20 20 21 21 22
REMARK SMILES IDX 22 23 23 24 29 25 24 26 27 27 26 28 28 29 25 30
REMARK H PARENT 25 31
ROOT
ATOM      1  C   UNL     1     -18.739  -1.652  15.052  1.00  0.00     0.185 C 
ATOM      2  C   UNL     1     -17.311  -2.219  14.991  1.00  0.00     0.053 C 
ATOM      3  C   UNL     1     -16.876  -2.656  13.582  1.00  0.00     0.012 C 
ATOM      4  C   UNL     1     -17.171  -4.135  13.325  1.00  0.00     0.012 C 
ATOM      5  C   UNL     1     -17.482  -1.820  12.485  1.00  0.00    -0.020 C 
ATOM      6  C   UNL     1     -18.377  -0.835  12.680  1.00  0.00    -0.045 C 
ATOM      7  C   UNL     1     -18.911  -0.115  11.541  1.00  0.00    -0.000 C 
ATOM      8  C   UNL     1     -19.803   0.875  11.663  1.00  0.00    -0.023 C 
ATOM      9  C   UNL     1     -20.350   1.337  12.987  1.00  0.00     0.012 C 
ATOM     10  C   UNL     1     -19.607   2.621  13.384  1.00  0.00     0.012 C 
ATOM     11  C   UNL     1     -20.296   0.189  14.042  1.00  0.00     0.007 C 
ATOM     12  C   UNL     1     -18.867  -0.448  14.076  1.00  0.00     0.063 C 
ENDROOT
BRANCH   1  13
ATOM     13  O   UNL     1     -19.722  -2.656  14.720  1.00  0.00    -0.461 OA
BRANCH  13  14
ATOM     14  C   UNL     1     -20.074  -3.526  15.701  1.00  0.00     0.311 C 
ATOM     15  O   UNL     1     -19.872  -3.330  16.894  1.00  0.00    -0.252 OA
BRANCH  14  16
ATOM     16  C   UNL     1     -20.754  -4.792  15.153  1.00  0.00     0.062 C 
ATOM     17  C   UNL     1     -20.908  -4.639  13.635  1.00  0.00     0.023 C 
ATOM     18  C   UNL     1     -19.786  -5.963  15.432  1.00  0.00     0.023 C 
BRANCH  16  19
ATOM     19  C   UNL     1     -22.099  -5.134  15.852  1.00  0.00     0.015 C 
ATOM     20  C   UNL     1     -22.038  -6.142  16.996  1.00  0.00     0.005 C 
ENDBRANCH  16  19
ENDBRANCH  14  16
ENDBRANCH  13  14
ENDBRANCH   1  13
BRANCH  11  21
ATOM     21  C   UNL     1     -20.782   0.692  15.428  1.00  0.00     0.009 C 
BRANCH  21  22
ATOM     22  C   UNL     1     -22.187   0.224  15.838  1.00  0.00     0.046 C 
BRANCH  22  23
ATOM     23  C   UNL     1     -22.213  -0.542  17.173  1.00  0.00     0.179 C 
ATOM     24  C   UNL     1     -23.157  -1.733  17.092  1.00  0.00     0.077 C 
ATOM     25  O   UNL     1     -22.610   0.357  18.222  1.00  0.00    -0.462 OA
ATOM     26  C   UNL     1     -23.188  -2.428  18.439  1.00  0.00     0.129 C 
ATOM     27  C   UNL     1     -22.919  -0.109  19.451  1.00  0.00     0.308 C 
ATOM     28  C   UNL     1     -23.571  -1.463  19.540  1.00  0.00     0.154 C 
ATOM     29  O   UNL     1     -22.806   0.607  20.443  1.00  0.00    -0.252 OA
BRANCH  26  30
ATOM     30  O   UNL     1     -21.909  -3.003  18.699  1.00  0.00    -0.392 OA
ATOM     31  H   UNL     1     -21.234  -2.447  18.268  1.00  0.00     0.210 HD
ENDBRANCH  26  30
ENDBRANCH  22  23
ENDBRANCH  21  22
ENDBRANCH  11  21
TORSDOF 8
ENDMDL
MODEL 9
REMARK VINA RESULT:      -4.9      2.811      5.825
REMARK SMILES CCC(C)(C)C(=O)O[C@H]1C[C@@H](C)C=C2C=C[C@H](C)[C@H](CC[C@@H]3C[C@@H](O)CC(=O)O3)[C@H]21
REMARK SMILES IDX 9 1 10 2 11 3 12 4 13 5 14 6 15 7 16 8 17 9 18 10 19 11
REMARK SMILES IDX 30 12 8 13 6 14 7 15 3 16 4 17 5 18 2 19 1 20 20 21 21 22
REMARK SMILES IDX 22 23 23 24 29 25 24 26 27 27 26 28 28 29 25 30
REMARK H PARENT 25 31
ROOT
ATOM      1  C   UNL     1     -22.225  -1.644  18.451  1.00  0.00     0.185 C 
ATOM      2  C   UNL     1     -22.244  -2.509  19.721  1.00  0.00     0.053 C 
ATOM      3  C   UNL     1     -23.353  -3.574  19.730  1.00  0.00     0.012 C 
ATOM      4  C   UNL     1     -24.630  -3.065  20.400  1.00  0.00     0.012 C 
ATOM      5  C   UNL     1     -23.677  -4.108  18.359  1.00  0.00    -0.020 C 
ATOM      6  C   UNL     1     -23.127  -3.664  17.216  1.00  0.00    -0.045 C 
ATOM      7  C   UNL     1     -23.540  -4.239  15.951  1.00  0.00    -0.000 C 
ATOM      8  C   UNL     1     -23.033  -3.844  14.776  1.00  0.00    -0.023 C 
ATOM      9  C   UNL     1     -21.995  -2.762  14.644  1.00  0.00     0.012 C 
ATOM     10  C   UNL     1     -20.631  -3.437  14.446  1.00  0.00     0.012 C 
ATOM     11  C   UNL     1     -22.074  -1.767  15.844  1.00  0.00     0.007 C 
ATOM     12  C   UNL     1     -22.077  -2.552  17.198  1.00  0.00     0.063 C 
ENDROOT
BRANCH   1  13
ATOM     13  O   UNL     1     -23.423  -0.846  18.336  1.00  0.00    -0.461 OA
BRANCH  13  14
ATOM     14  C   UNL     1     -23.343   0.452  18.726  1.00  0.00     0.311 C 
ATOM     15  O   UNL     1     -22.453   1.218  18.374  1.00  0.00    -0.252 OA
BRANCH  14  16
ATOM     16  C   UNL     1     -24.491   0.861  19.663  1.00  0.00     0.062 C 
ATOM     17  C   UNL     1     -24.042   0.624  21.110  1.00  0.00     0.023 C 
ATOM     18  C   UNL     1     -24.702   2.378  19.459  1.00  0.00     0.023 C 
BRANCH  16  19
ATOM     19  C   UNL     1     -25.843   0.164  19.342  1.00  0.00     0.015 C 
ATOM     20  C   UNL     1     -27.043   1.075  19.107  1.00  0.00     0.005 C 
ENDBRANCH  16  19
ENDBRANCH  14  16
ENDBRANCH  13  14
ENDBRANCH   1  13
BRANCH  11  21
ATOM     21  C   UNL     1     -20.948  -0.702  15.750  1.00  0.00     0.009 C 
BRANCH  21  22
ATOM     22  C   UNL     1     -20.937   0.124  14.453  1.00  0.00     0.046 C 
BRANCH  22  23
ATOM     23  C   UNL     1     -20.351   1.536  14.632  1.00  0.00     0.179 C 
ATOM     24  C   UNL     1     -19.436   1.890  13.469  1.00  0.00     0.077 C 
ATOM     25  O   UNL     1     -19.640   1.594  15.880  1.00  0.00    -0.462 OA
ATOM     26  C   UNL     1     -18.845   3.265  13.709  1.00  0.00     0.129 C 
ATOM     27  C   UNL     1     -18.853   2.650  16.179  1.00  0.00     0.308 C 
ATOM     28  C   UNL     1     -18.130   3.325  15.043  1.00  0.00     0.154 C 
ATOM     29  O   UNL     1     -18.622   2.954  17.346  1.00  0.00    -0.252 OA
BRANCH  26  30
ATOM     30  O   UNL     1     -19.885   4.238  13.654  1.00  0.00    -0.392 OA
ATOM     31  H   UNL     1     -19.677   4.865  12.938  1.00  0.00     0.210 HD
ENDBRANCH  26  30
ENDBRANCH  22  23
ENDBRANCH  21  22
ENDBRANCH  11  21
TORSDOF 8
ENDMDL
