MODEL 1
REMARK VINA RESULT:      -5.6      0.000      0.000
REMARK SMILES C=Cc1c(C)c2cc3nc(cc4[nH]c(cc5nc(cc1[nH]2)C(C)=C5CCC(=O)OC)c(CCC(=O)O)c4C)[C@@]1(C)C3=CC=C(C(=O)OC)[C@H]1C(=O)OC
REMARK SMILES IDX 3 1 4 2 5 3 6 4 7 5 8 6 9 7 10 8 11 9 12 10 13 11 14 12
REMARK SMILES IDX 15 13 16 14 17 15 18 16 19 17 20 18 21 19 22 20 23 21 24 22
REMARK SMILES IDX 31 23 37 24 38 25 39 26 40 27 41 28 42 29 43 30 44 31 49 32
REMARK SMILES IDX 2 35 1 36 25 37 26 38 27 39 28 40 29 41 30 42 50 43 51 44
REMARK SMILES IDX 52 45 53 46 45 47 46 48 47 49 48 50 32 51 33 52 34 53 35 54
REMARK SMILES IDX 36 55
REMARK H PARENT 13 33 21 34 36 56
ROOT
ATOM      1  C   UNL     1     -19.489   2.693  15.393  1.00  0.00     0.002 A 
ATOM      2  C   UNL     1     -20.569   3.241  16.170  1.00  0.00    -0.018 A 
ATOM      3  C   UNL     1     -20.780   4.660  16.555  1.00  0.00     0.047 C 
ATOM      4  C   UNL     1     -21.382   2.169  16.508  1.00  0.00     0.044 A 
ATOM      5  C   UNL     1     -22.732   2.246  17.302  1.00  0.00     0.055 A 
ATOM      6  C   UNL     1     -23.297   1.186  17.918  1.00  0.00     0.070 A 
ATOM      7  N   UNL     1     -22.882  -0.109  17.997  1.00  0.00    -0.252 NA
ATOM      8  C   UNL     1     -23.654  -0.838  18.850  1.00  0.00     0.055 A 
ATOM      9  C   UNL     1     -23.577  -2.136  19.218  1.00  0.00     0.051 A 
ATOM     10  C   UNL     1     -22.540  -3.149  18.634  1.00  0.00     0.044 A 
ATOM     11  N   UNL     1     -21.619  -2.872  17.660  1.00  0.00    -0.355 N 
ATOM     12  C   UNL     1     -20.923  -4.013  17.359  1.00  0.00     0.044 A 
ATOM     13  C   UNL     1     -19.838  -4.142  16.232  1.00  0.00     0.055 A 
ATOM     14  C   UNL     1     -19.338  -3.089  15.551  1.00  0.00     0.069 A 
ATOM     15  N   UNL     1     -19.610  -1.762  15.678  1.00  0.00    -0.248 NA
ATOM     16  C   UNL     1     -18.851  -1.051  14.803  1.00  0.00     0.069 A 
ATOM     17  C   UNL     1     -18.794   0.276  14.565  1.00  0.00     0.055 A 
ATOM     18  C   UNL     1     -19.678   1.324  15.331  1.00  0.00     0.048 A 
ATOM     19  N   UNL     1     -20.808   1.016  16.042  1.00  0.00    -0.355 N 
ATOM     20  C   UNL     1     -18.029  -2.002  14.062  1.00  0.00    -0.020 C 
ATOM     21  C   UNL     1     -17.036  -1.607  13.025  1.00  0.00     0.047 C 
ATOM     22  C   UNL     1     -18.343  -3.234  14.487  1.00  0.00    -0.017 C 
ATOM     23  C   UNL     1     -21.351  -5.029  18.199  1.00  0.00    -0.019 A 
ATOM     24  C   UNL     1     -22.409  -4.476  19.007  1.00  0.00    -0.022 A 
ATOM     25  C   UNL     1     -23.212  -5.180  20.041  1.00  0.00     0.047 C 
ATOM     26  C   UNL     1     -24.722   0.071  19.456  1.00  0.00     0.055 C 
ATOM     27  C   UNL     1     -24.336   0.360  20.934  1.00  0.00     0.025 C 
ATOM     28  C   UNL     1     -24.547   1.334  18.653  1.00  0.00    -0.009 C 
ATOM     29  C   UNL     1     -25.512   2.262  18.548  1.00  0.00     0.007 C 
ATOM     30  C   UNL     1     -26.781   2.060  19.219  1.00  0.00     0.012 C 
ATOM     31  C   UNL     1     -27.157   0.819  19.591  1.00  0.00     0.053 C 
ATOM     32  C   UNL     1     -26.218  -0.376  19.384  1.00  0.00     0.153 C 
ATOM     33  H   UNL     1     -21.479  -1.964  17.224  1.00  0.00     0.167 HD
ATOM     34  H   UNL     1     -21.151   0.075  16.219  1.00  0.00     0.167 HD
ENDROOT
BRANCH   1  35
ATOM     35  C   UNL     1     -18.381   3.371  14.796  1.00  0.00     0.003 C 
ATOM     36  C   UNL     1     -18.400   4.047  13.639  1.00  0.00     0.009 C 
ENDBRANCH   1  35
BRANCH  22  37
ATOM     37  C   UNL     1     -17.786  -4.527  13.973  1.00  0.00     0.050 C 
BRANCH  37  38
ATOM     38  C   UNL     1     -18.296  -4.926  12.586  1.00  0.00     0.127 C 
BRANCH  38  39
ATOM     39  C   UNL     1     -19.787  -4.820  12.385  1.00  0.00     0.305 C 
ATOM     40  O   UNL     1     -20.594  -5.505  13.008  1.00  0.00    -0.252 OA
BRANCH  39  41
ATOM     41  O   UNL     1     -20.119  -3.790  11.565  1.00  0.00    -0.469 OA
ATOM     42  C   UNL     1     -21.135  -2.946  12.104  1.00  0.00     0.282 C 
ENDBRANCH  39  41
ENDBRANCH  38  39
ENDBRANCH  37  38
ENDBRANCH  22  37
BRANCH  32  43
ATOM     43  C   UNL     1     -26.618  -1.024  18.057  1.00  0.00     0.314 C 
ATOM     44  O   UNL     1     -26.747  -0.448  16.979  1.00  0.00    -0.252 OA
BRANCH  43  45
ATOM     45  O   UNL     1     -26.939  -2.339  18.248  1.00  0.00    -0.469 OA
ATOM     46  C   UNL     1     -28.337  -2.604  18.163  1.00  0.00     0.282 C 
ENDBRANCH  43  45
ENDBRANCH  32  43
BRANCH  31  47
ATOM     47  C   UNL     1     -28.477   0.524  20.194  1.00  0.00     0.334 C 
ATOM     48  O   UNL     1     -28.651  -0.295  21.085  1.00  0.00    -0.247 OA
BRANCH  47  49
ATOM     49  O   UNL     1     -29.460   1.285  19.640  1.00  0.00    -0.466 OA
ATOM     50  C   UNL     1     -30.304   1.921  20.597  1.00  0.00     0.282 C 
ENDBRANCH  47  49
ENDBRANCH  31  47
BRANCH  23  51
ATOM     51  C   UNL     1     -20.835  -6.433  18.245  1.00  0.00     0.050 C 
BRANCH  51  52
ATOM     52  C   UNL     1     -19.409  -6.494  18.779  1.00  0.00     0.127 C 
BRANCH  52  53
ATOM     53  C   UNL     1     -19.280  -5.740  20.069  1.00  0.00     0.303 C 
ATOM     54  O   UNL     1     -19.830  -5.965  21.134  1.00  0.00    -0.252 OA
BRANCH  53  55
ATOM     55  O   UNL     1     -18.407  -4.714  19.973  1.00  0.00    -0.481 OA
ATOM     56  H   UNL     1     -17.638  -5.027  20.489  1.00  0.00     0.296 HD
ENDBRANCH  53  55
ENDBRANCH  52  53
ENDBRANCH  51  52
ENDBRANCH  23  51
TORSDOF 13
ENDMDL
MODEL 2
REMARK VINA RESULT:      -5.2      1.476      1.941
REMARK SMILES C=Cc1c(C)c2cc3nc(cc4[nH]c(cc5nc(cc1[nH]2)C(C)=C5CCC(=O)OC)c(CCC(=O)O)c4C)[C@@]1(C)C3=CC=C(C(=O)OC)[C@H]1C(=O)OC
REMARK SMILES IDX 3 1 4 2 5 3 6 4 7 5 8 6 9 7 10 8 11 9 12 10 13 11 14 12
REMARK SMILES IDX 15 13 16 14 17 15 18 16 19 17 20 18 21 19 22 20 23 21 24 22
REMARK SMILES IDX 31 23 37 24 38 25 39 26 40 27 41 28 42 29 43 30 44 31 49 32
REMARK SMILES IDX 2 35 1 36 25 37 26 38 27 39 28 40 29 41 30 42 50 43 51 44
REMARK SMILES IDX 52 45 53 46 45 47 46 48 47 49 48 50 32 51 33 52 34 53 35 54
REMARK SMILES IDX 36 55
REMARK H PARENT 13 33 21 34 36 56
ROOT
ATOM      1  C   UNL     1     -19.415   2.771  15.237  1.00  0.00     0.002 A 
ATOM      2  C   UNL     1     -20.486   3.280  16.051  1.00  0.00    -0.018 A 
ATOM      3  C   UNL     1     -20.714   4.685  16.475  1.00  0.00     0.047 C 
ATOM      4  C   UNL     1     -21.270   2.185  16.384  1.00  0.00     0.044 A 
ATOM      5  C   UNL     1     -22.601   2.218  17.212  1.00  0.00     0.055 A 
ATOM      6  C   UNL     1     -23.131   1.133  17.816  1.00  0.00     0.070 A 
ATOM      7  N   UNL     1     -22.689  -0.156  17.855  1.00  0.00    -0.252 NA
ATOM      8  C   UNL     1     -23.427  -0.919  18.708  1.00  0.00     0.055 A 
ATOM      9  C   UNL     1     -23.316  -2.223  19.044  1.00  0.00     0.051 A 
ATOM     10  C   UNL     1     -22.275  -3.202  18.411  1.00  0.00     0.044 A 
ATOM     11  N   UNL     1     -21.383  -2.885  17.422  1.00  0.00    -0.355 N 
ATOM     12  C   UNL     1     -20.674  -4.005  17.077  1.00  0.00     0.044 A 
ATOM     13  C   UNL     1     -19.615  -4.086  15.922  1.00  0.00     0.055 A 
ATOM     14  C   UNL     1     -19.152  -3.009  15.254  1.00  0.00     0.069 A 
ATOM     15  N   UNL     1     -19.445  -1.690  15.418  1.00  0.00    -0.248 NA
ATOM     16  C   UNL     1     -18.722  -0.945  14.542  1.00  0.00     0.069 A 
ATOM     17  C   UNL     1     -18.695   0.388  14.334  1.00  0.00     0.055 A 
ATOM     18  C   UNL     1     -19.579   1.401  15.147  1.00  0.00     0.048 A 
ATOM     19  N   UNL     1     -20.686   1.055  15.877  1.00  0.00    -0.355 N 
ATOM     20  C   UNL     1     -17.901  -1.862  13.760  1.00  0.00    -0.020 C 
ATOM     21  C   UNL     1     -16.941  -1.424  12.709  1.00  0.00     0.047 C 
ATOM     22  C   UNL     1     -18.181  -3.110  14.163  1.00  0.00    -0.017 C 
ATOM     23  C   UNL     1     -21.062  -5.048  17.903  1.00  0.00    -0.019 A 
ATOM     24  C   UNL     1     -22.110  -4.534  18.749  1.00  0.00    -0.022 A 
ATOM     25  C   UNL     1     -22.874  -5.278  19.785  1.00  0.00     0.047 C 
ATOM     26  C   UNL     1     -24.497  -0.044  19.361  1.00  0.00     0.055 C 
ATOM     27  C   UNL     1     -24.080   0.217  20.836  1.00  0.00     0.025 C 
ATOM     28  C   UNL     1     -24.365   1.239  18.585  1.00  0.00    -0.009 C 
ATOM     29  C   UNL     1     -25.350   2.151  18.525  1.00  0.00     0.007 C 
ATOM     30  C   UNL     1     -26.598   1.909  19.222  1.00  0.00     0.012 C 
ATOM     31  C   UNL     1     -26.941   0.652  19.573  1.00  0.00     0.053 C 
ATOM     32  C   UNL     1     -25.985  -0.519  19.315  1.00  0.00     0.153 C 
ATOM     33  H   UNL     1     -21.272  -1.964  17.004  1.00  0.00     0.167 HD
ATOM     34  H   UNL     1     -21.007   0.104  16.040  1.00  0.00     0.167 HD
ENDROOT
BRANCH   1  35
ATOM     35  C   UNL     1     -18.336   3.485  14.628  1.00  0.00     0.003 C 
ATOM     36  C   UNL     1     -18.404   4.215  13.507  1.00  0.00     0.009 C 
ENDBRANCH   1  35
BRANCH  22  37
ATOM     37  C   UNL     1     -17.612  -4.379  13.605  1.00  0.00     0.050 C 
BRANCH  37  38
ATOM     38  C   UNL     1     -18.563  -5.144  12.681  1.00  0.00     0.127 C 
BRANCH  38  39
ATOM     39  C   UNL     1     -18.201  -6.584  12.420  1.00  0.00     0.305 C 
ATOM     40  O   UNL     1     -19.040  -7.454  12.200  1.00  0.00    -0.252 OA
BRANCH  39  41
ATOM     41  O   UNL     1     -16.858  -6.759  12.307  1.00  0.00    -0.469 OA
ATOM     42  C   UNL     1     -16.405  -7.998  12.848  1.00  0.00     0.282 C 
ENDBRANCH  39  41
ENDBRANCH  38  39
ENDBRANCH  37  38
ENDBRANCH  22  37
BRANCH  32  43
ATOM     43  C   UNL     1     -26.405  -1.144  17.983  1.00  0.00     0.314 C 
ATOM     44  O   UNL     1     -26.557  -0.547  16.920  1.00  0.00    -0.252 OA
BRANCH  43  45
ATOM     45  O   UNL     1     -26.714  -2.464  18.155  1.00  0.00    -0.469 OA
ATOM     46  C   UNL     1     -26.343  -3.286  17.051  1.00  0.00     0.282 C 
ENDBRANCH  43  45
ENDBRANCH  32  43
BRANCH  31  47
ATOM     47  C   UNL     1     -28.240   0.318  20.200  1.00  0.00     0.334 C 
ATOM     48  O   UNL     1     -28.388  -0.572  21.025  1.00  0.00    -0.247 OA
BRANCH  47  49
ATOM     49  O   UNL     1     -29.234   1.132  19.752  1.00  0.00    -0.466 OA
ATOM     50  C   UNL     1     -30.084   1.626  20.785  1.00  0.00     0.282 C 
ENDBRANCH  47  49
ENDBRANCH  31  47
BRANCH  23  51
ATOM     51  C   UNL     1     -20.518  -6.442  17.903  1.00  0.00     0.050 C 
BRANCH  51  52
ATOM     52  C   UNL     1     -21.199  -7.315  16.856  1.00  0.00     0.127 C 
BRANCH  52  53
ATOM     53  C   UNL     1     -20.298  -7.555  15.681  1.00  0.00     0.303 C 
ATOM     54  O   UNL     1     -19.104  -7.802  15.683  1.00  0.00    -0.252 OA
BRANCH  53  55
ATOM     55  O   UNL     1     -20.967  -7.506  14.509  1.00  0.00    -0.481 OA
ATOM     56  H   UNL     1     -21.416  -8.374  14.472  1.00  0.00     0.296 HD
ENDBRANCH  53  55
ENDBRANCH  52  53
ENDBRANCH  51  52
ENDBRANCH  23  51
TORSDOF 13
ENDMDL
MODEL 3
REMARK VINA RESULT:      -5.1      3.365      7.823
REMARK SMILES C=Cc1c(C)c2cc3nc(cc4[nH]c(cc5nc(cc1[nH]2)C(C)=C5CCC(=O)OC)c(CCC(=O)O)c4C)[C@@]1(C)C3=CC=C(C(=O)OC)[C@H]1C(=O)OC
REMARK SMILES IDX 3 1 4 2 5 3 6 4 7 5 8 6 9 7 10 8 11 9 12 10 13 11 14 12
REMARK SMILES IDX 15 13 16 14 17 15 18 16 19 17 20 18 21 19 22 20 23 21 24 22
REMARK SMILES IDX 31 23 37 24 38 25 39 26 40 27 41 28 42 29 43 30 44 31 49 32
REMARK SMILES IDX 2 35 1 36 25 37 26 38 27 39 28 40 29 41 30 42 50 43 51 44
REMARK SMILES IDX 52 45 53 46 45 47 46 48 47 49 48 50 32 51 33 52 34 53 35 54
REMARK SMILES IDX 36 55
REMARK H PARENT 13 33 21 34 36 56
ROOT
ATOM      1  C   UNL     1     -18.756  -1.546  14.279  1.00  0.00     0.002 A 
ATOM      2  C   UNL     1     -19.500  -2.745  14.557  1.00  0.00    -0.018 A 
ATOM      3  C   UNL     1     -19.321  -4.087  13.946  1.00  0.00     0.047 C 
ATOM      4  C   UNL     1     -20.445  -2.398  15.512  1.00  0.00     0.044 A 
ATOM      5  C   UNL     1     -21.467  -3.369  16.198  1.00  0.00     0.055 A 
ATOM      6  C   UNL     1     -22.585  -2.952  16.831  1.00  0.00     0.070 A 
ATOM      7  N   UNL     1     -23.067  -1.692  17.024  1.00  0.00    -0.252 NA
ATOM      8  C   UNL     1     -24.312  -1.705  17.575  1.00  0.00     0.055 A 
ATOM      9  C   UNL     1     -25.138  -0.690  17.910  1.00  0.00     0.051 A 
ATOM     10  C   UNL     1     -24.761   0.822  17.782  1.00  0.00     0.044 A 
ATOM     11  N   UNL     1     -23.552   1.307  17.361  1.00  0.00    -0.355 N 
ATOM     12  C   UNL     1     -23.564   2.674  17.433  1.00  0.00     0.044 A 
ATOM     13  C   UNL     1     -22.342   3.609  17.124  1.00  0.00     0.055 A 
ATOM     14  C   UNL     1     -21.188   3.175  16.575  1.00  0.00     0.069 A 
ATOM     15  N   UNL     1     -20.835   1.927  16.164  1.00  0.00    -0.248 NA
ATOM     16  C   UNL     1     -19.581   1.952  15.642  1.00  0.00     0.069 A 
ATOM     17  C   UNL     1     -18.821   0.960  15.131  1.00  0.00     0.055 A 
ATOM     18  C   UNL     1     -19.304  -0.532  15.043  1.00  0.00     0.048 A 
ATOM     19  N   UNL     1     -20.350  -1.055  15.758  1.00  0.00    -0.355 N 
ATOM     20  C   UNL     1     -19.098   3.325  15.725  1.00  0.00    -0.020 C 
ATOM     21  C   UNL     1     -17.767   3.768  15.225  1.00  0.00     0.047 C 
ATOM     22  C   UNL     1     -20.051   4.060  16.317  1.00  0.00    -0.017 C 
ATOM     23  C   UNL     1     -24.824   3.086  17.841  1.00  0.00    -0.019 A 
ATOM     24  C   UNL     1     -25.588   1.889  18.085  1.00  0.00    -0.022 A 
ATOM     25  C   UNL     1     -26.991   1.802  18.570  1.00  0.00     0.047 C 
ATOM     26  C   UNL     1     -24.759  -3.155  17.763  1.00  0.00     0.055 C 
ATOM     27  C   UNL     1     -25.834  -3.477  16.687  1.00  0.00     0.025 C 
ATOM     28  C   UNL     1     -23.500  -3.913  17.433  1.00  0.00    -0.009 C 
ATOM     29  C   UNL     1     -23.289  -5.174  17.843  1.00  0.00     0.007 C 
ATOM     30  C   UNL     1     -24.295  -5.850  18.639  1.00  0.00     0.012 C 
ATOM     31  C   UNL     1     -25.221  -5.132  19.306  1.00  0.00     0.053 C 
ATOM     32  C   UNL     1     -25.273  -3.606  19.168  1.00  0.00     0.153 C 
ATOM     33  H   UNL     1     -22.766   0.739  17.052  1.00  0.00     0.167 HD
ATOM     34  H   UNL     1     -20.976  -0.520  16.355  1.00  0.00     0.167 HD
ENDROOT
BRANCH   1  35
ATOM     35  C   UNL     1     -17.664  -1.360  13.374  1.00  0.00     0.003 C 
ATOM     36  C   UNL     1     -16.551  -2.102  13.316  1.00  0.00     0.009 C 
ENDBRANCH   1  35
BRANCH  22  37
ATOM     37  C   UNL     1     -19.975   5.518  16.657  1.00  0.00     0.050 C 
BRANCH  37  38
ATOM     38  C   UNL     1     -19.649   5.807  18.124  1.00  0.00     0.127 C 
BRANCH  38  39
ATOM     39  C   UNL     1     -19.939   7.211  18.592  1.00  0.00     0.305 C 
ATOM     40  O   UNL     1     -21.050   7.571  18.974  1.00  0.00    -0.252 OA
BRANCH  39  41
ATOM     41  O   UNL     1     -18.810   7.961  18.681  1.00  0.00    -0.469 OA
ATOM     42  C   UNL     1     -18.742   8.993  17.699  1.00  0.00     0.282 C 
ENDBRANCH  39  41
ENDBRANCH  38  39
ENDBRANCH  37  38
ENDBRANCH  22  37
BRANCH  32  43
ATOM     43  C   UNL     1     -24.479  -3.031  20.343  1.00  0.00     0.314 C 
ATOM     44  O   UNL     1     -23.395  -3.440  20.754  1.00  0.00    -0.252 OA
BRANCH  43  45
ATOM     45  O   UNL     1     -25.200  -2.054  20.971  1.00  0.00    -0.469 OA
ATOM     46  C   UNL     1     -26.610  -2.243  20.889  1.00  0.00     0.282 C 
ENDBRANCH  43  45
ENDBRANCH  32  43
BRANCH  31  47
ATOM     47  C   UNL     1     -26.218  -5.747  20.212  1.00  0.00     0.334 C 
ATOM     48  O   UNL     1     -25.993  -6.028  21.381  1.00  0.00    -0.247 OA
BRANCH  47  49
ATOM     49  O   UNL     1     -27.408  -5.946  19.583  1.00  0.00    -0.466 OA
ATOM     50  C   UNL     1     -28.542  -5.781  20.431  1.00  0.00     0.282 C 
ENDBRANCH  47  49
ENDBRANCH  31  47
BRANCH  23  51
ATOM     51  C   UNL     1     -25.293   4.496  18.015  1.00  0.00     0.050 C 
BRANCH  51  52
ATOM     52  C   UNL     1     -25.193   4.950  19.466  1.00  0.00     0.127 C 
BRANCH  52  53
ATOM     53  C   UNL     1     -24.573   6.311  19.568  1.00  0.00     0.303 C 
ATOM     54  O   UNL     1     -24.741   7.155  20.433  1.00  0.00    -0.252 OA
BRANCH  53  55
ATOM     55  O   UNL     1     -23.711   6.554  18.558  1.00  0.00    -0.481 OA
ATOM     56  H   UNL     1     -23.411   7.468  18.736  1.00  0.00     0.296 HD
ENDBRANCH  53  55
ENDBRANCH  52  53
ENDBRANCH  51  52
ENDBRANCH  23  51
TORSDOF 13
ENDMDL
MODEL 4
REMARK VINA RESULT:      -5.0      3.208      7.779
REMARK SMILES C=Cc1c(C)c2cc3nc(cc4[nH]c(cc5nc(cc1[nH]2)C(C)=C5CCC(=O)OC)c(CCC(=O)O)c4C)[C@@]1(C)C3=CC=C(C(=O)OC)[C@H]1C(=O)OC
REMARK SMILES IDX 3 1 4 2 5 3 6 4 7 5 8 6 9 7 10 8 11 9 12 10 13 11 14 12
REMARK SMILES IDX 15 13 16 14 17 15 18 16 19 17 20 18 21 19 22 20 23 21 24 22
REMARK SMILES IDX 31 23 37 24 38 25 39 26 40 27 41 28 42 29 43 30 44 31 49 32
REMARK SMILES IDX 2 35 1 36 25 37 26 38 27 39 28 40 29 41 30 42 50 43 51 44
REMARK SMILES IDX 52 45 53 46 45 47 46 48 47 49 48 50 32 51 33 52 34 53 35 54
REMARK SMILES IDX 36 55
REMARK H PARENT 13 33 21 34 36 56
ROOT
ATOM      1  C   UNL     1     -25.320  -1.036  19.837  1.00  0.00     0.002 A 
ATOM      2  C   UNL     1     -25.408   0.330  19.394  1.00  0.00    -0.018 A 
ATOM      3  C   UNL     1     -26.542   1.271  19.574  1.00  0.00     0.047 C 
ATOM      4  C   UNL     1     -24.214   0.599  18.741  1.00  0.00     0.044 A 
ATOM      5  C   UNL     1     -23.786   1.977  18.126  1.00  0.00     0.055 A 
ATOM      6  C   UNL     1     -22.809   2.111  17.204  1.00  0.00     0.070 A 
ATOM      7  N   UNL     1     -22.011   1.171  16.625  1.00  0.00    -0.252 NA
ATOM      8  C   UNL     1     -21.257   1.696  15.619  1.00  0.00     0.055 A 
ATOM      9  C   UNL     1     -20.359   1.112  14.795  1.00  0.00     0.051 A 
ATOM     10  C   UNL     1     -19.930  -0.387  14.891  1.00  0.00     0.044 A 
ATOM     11  N   UNL     1     -20.366  -1.280  15.832  1.00  0.00    -0.355 N 
ATOM     12  C   UNL     1     -19.733  -2.480  15.644  1.00  0.00     0.044 A 
ATOM     13  C   UNL     1     -19.887  -3.741  16.566  1.00  0.00     0.055 A 
ATOM     14  C   UNL     1     -20.805  -3.840  17.551  1.00  0.00     0.069 A 
ATOM     15  N   UNL     1     -21.763  -2.955  17.941  1.00  0.00    -0.248 NA
ATOM     16  C   UNL     1     -22.488  -3.482  18.961  1.00  0.00     0.069 A 
ATOM     17  C   UNL     1     -23.517  -2.967  19.667  1.00  0.00     0.055 A 
ATOM     18  C   UNL     1     -24.106  -1.534  19.403  1.00  0.00     0.048 A 
ATOM     19  N   UNL     1     -23.461  -0.544  18.709  1.00  0.00    -0.355 N 
ATOM     20  C   UNL     1     -21.952  -4.809  19.241  1.00  0.00    -0.020 C 
ATOM     21  C   UNL     1     -22.502  -5.723  20.280  1.00  0.00     0.047 C 
ATOM     22  C   UNL     1     -20.916  -5.016  18.415  1.00  0.00    -0.017 C 
ATOM     23  C   UNL     1     -18.927  -2.385  14.520  1.00  0.00    -0.019 A 
ATOM     24  C   UNL     1     -19.039  -1.028  14.048  1.00  0.00    -0.022 A 
ATOM     25  C   UNL     1     -18.339  -0.421  12.885  1.00  0.00     0.047 C 
ATOM     26  C   UNL     1     -21.593   3.179  15.466  1.00  0.00     0.055 C 
ATOM     27  C   UNL     1     -22.441   3.356  14.175  1.00  0.00     0.025 C 
ATOM     28  C   UNL     1     -22.474   3.423  16.663  1.00  0.00    -0.009 C 
ATOM     29  C   UNL     1     -22.680   4.650  17.169  1.00  0.00     0.007 C 
ATOM     30  C   UNL     1     -22.036   5.797  16.560  1.00  0.00     0.012 C 
ATOM     31  C   UNL     1     -20.946   5.625  15.784  1.00  0.00     0.053 C 
ATOM     32  C   UNL     1     -20.425   4.218  15.471  1.00  0.00     0.153 C 
ATOM     33  H   UNL     1     -21.046  -1.080  16.562  1.00  0.00     0.167 HD
ATOM     34  H   UNL     1     -22.575  -0.652  18.222  1.00  0.00     0.167 HD
ENDROOT
BRANCH   1  35
ATOM     35  C   UNL     1     -26.282  -1.804  20.565  1.00  0.00     0.003 C 
ATOM     36  C   UNL     1     -26.704  -1.563  21.813  1.00  0.00     0.009 C 
ENDBRANCH   1  35
BRANCH  22  37
ATOM     37  C   UNL     1     -20.029  -6.224  18.377  1.00  0.00     0.050 C 
BRANCH  37  38
ATOM     38  C   UNL     1     -19.093  -6.356  19.581  1.00  0.00     0.127 C 
BRANCH  38  39
ATOM     39  C   UNL     1     -18.033  -7.423  19.468  1.00  0.00     0.305 C 
ATOM     40  O   UNL     1     -18.095  -8.342  18.655  1.00  0.00    -0.252 OA
BRANCH  39  41
ATOM     41  O   UNL     1     -16.956  -7.155  20.252  1.00  0.00    -0.469 OA
ATOM     42  C   UNL     1     -16.926  -5.811  20.727  1.00  0.00     0.282 C 
ENDBRANCH  39  41
ENDBRANCH  38  39
ENDBRANCH  37  38
ENDBRANCH  22  37
BRANCH  32  43
ATOM     43  C   UNL     1     -19.323   3.920  16.491  1.00  0.00     0.314 C 
ATOM     44  O   UNL     1     -19.481   3.744  17.697  1.00  0.00    -0.252 OA
BRANCH  43  45
ATOM     45  O   UNL     1     -18.094   3.995  15.897  1.00  0.00    -0.469 OA
ATOM     46  C   UNL     1     -18.138   3.885  14.477  1.00  0.00     0.282 C 
ENDBRANCH  43  45
ENDBRANCH  32  43
BRANCH  31  47
ATOM     47  C   UNL     1     -20.182   6.755  15.208  1.00  0.00     0.334 C 
ATOM     48  O   UNL     1     -20.075   6.962  14.008  1.00  0.00    -0.247 OA
BRANCH  47  49
ATOM     49  O   UNL     1     -19.630   7.531  16.180  1.00  0.00    -0.466 OA
ATOM     50  C   UNL     1     -18.204   7.539  16.171  1.00  0.00     0.282 C 
ENDBRANCH  47  49
ENDBRANCH  31  47
BRANCH  23  51
ATOM     51  C   UNL     1     -18.086  -3.471  13.925  1.00  0.00     0.050 C 
BRANCH  51  52
ATOM     52  C   UNL     1     -16.614  -3.081  13.872  1.00  0.00     0.127 C 
BRANCH  52  53
ATOM     53  C   UNL     1     -15.932  -3.697  12.687  1.00  0.00     0.303 C 
ATOM     54  O   UNL     1     -15.369  -4.777  12.617  1.00  0.00    -0.252 OA
BRANCH  53  55
ATOM     55  O   UNL     1     -16.014  -2.915  11.590  1.00  0.00    -0.481 OA
ATOM     56  H   UNL     1     -15.489  -2.127  11.837  1.00  0.00     0.296 HD
ENDBRANCH  53  55
ENDBRANCH  52  53
ENDBRANCH  51  52
ENDBRANCH  23  51
TORSDOF 13
ENDMDL
MODEL 5
REMARK VINA RESULT:      -4.8      8.673     13.454
REMARK SMILES C=Cc1c(C)c2cc3nc(cc4[nH]c(cc5nc(cc1[nH]2)C(C)=C5CCC(=O)OC)c(CCC(=O)O)c4C)[C@@]1(C)C3=CC=C(C(=O)OC)[C@H]1C(=O)OC
REMARK SMILES IDX 3 1 4 2 5 3 6 4 7 5 8 6 9 7 10 8 11 9 12 10 13 11 14 12
REMARK SMILES IDX 15 13 16 14 17 15 18 16 19 17 20 18 21 19 22 20 23 21 24 22
REMARK SMILES IDX 31 23 37 24 38 25 39 26 40 27 41 28 42 29 43 30 44 31 49 32
REMARK SMILES IDX 2 35 1 36 25 37 26 38 27 39 28 40 29 41 30 42 50 43 51 44
REMARK SMILES IDX 52 45 53 46 45 47 46 48 47 49 48 50 32 51 33 52 34 53 35 54
REMARK SMILES IDX 36 55
REMARK H PARENT 13 33 21 34 36 56
ROOT
ATOM      1  C   UNL     1     -29.612   6.386  19.978  1.00  0.00     0.002 A 
ATOM      2  C   UNL     1     -29.823   5.164  19.250  1.00  0.00    -0.018 A 
ATOM      3  C   UNL     1     -30.120   5.009  17.803  1.00  0.00     0.047 C 
ATOM      4  C   UNL     1     -29.709   4.139  20.179  1.00  0.00     0.044 A 
ATOM      5  C   UNL     1     -29.795   2.603  19.877  1.00  0.00     0.055 A 
ATOM      6  C   UNL     1     -30.041   1.669  20.820  1.00  0.00     0.070 A 
ATOM      7  N   UNL     1     -30.255   1.807  22.159  1.00  0.00    -0.252 NA
ATOM      8  C   UNL     1     -30.628   0.631  22.736  1.00  0.00     0.055 A 
ATOM      9  C   UNL     1     -30.943   0.339  24.017  1.00  0.00     0.051 A 
ATOM     10  C   UNL     1     -30.866   1.368  25.192  1.00  0.00     0.044 A 
ATOM     11  N   UNL     1     -30.436   2.663  25.087  1.00  0.00    -0.355 N 
ATOM     12  C   UNL     1     -30.447   3.244  26.328  1.00  0.00     0.044 A 
ATOM     13  C   UNL     1     -29.943   4.694  26.654  1.00  0.00     0.055 A 
ATOM     14  C   UNL     1     -29.608   5.600  25.710  1.00  0.00     0.069 A 
ATOM     15  N   UNL     1     -29.645   5.498  24.354  1.00  0.00    -0.248 NA
ATOM     16  C   UNL     1     -29.244   6.669  23.794  1.00  0.00     0.069 A 
ATOM     17  C   UNL     1     -29.109   7.023  22.498  1.00  0.00     0.055 A 
ATOM     18  C   UNL     1     -29.420   6.050  21.306  1.00  0.00     0.048 A 
ATOM     19  N   UNL     1     -29.518   4.687  21.419  1.00  0.00    -0.355 N 
ATOM     20  C   UNL     1     -28.931   7.591  24.880  1.00  0.00    -0.020 C 
ATOM     21  C   UNL     1     -28.483   8.995  24.672  1.00  0.00     0.047 C 
ATOM     22  C   UNL     1     -29.118   6.940  26.037  1.00  0.00    -0.017 C 
ATOM     23  C   UNL     1     -30.958   2.334  27.240  1.00  0.00    -0.019 A 
ATOM     24  C   UNL     1     -31.207   1.116  26.509  1.00  0.00    -0.022 A 
ATOM     25  C   UNL     1     -31.728  -0.166  27.051  1.00  0.00     0.047 C 
ATOM     26  C   UNL     1     -30.707  -0.450  21.658  1.00  0.00     0.055 C 
ATOM     27  C   UNL     1     -32.207  -0.751  21.378  1.00  0.00     0.025 C 
ATOM     28  C   UNL     1     -30.123   0.258  20.465  1.00  0.00    -0.009 C 
ATOM     29  C   UNL     1     -29.619  -0.403  19.409  1.00  0.00     0.007 C 
ATOM     30  C   UNL     1     -29.622  -1.853  19.399  1.00  0.00     0.012 C 
ATOM     31  C   UNL     1     -29.733  -2.534  20.558  1.00  0.00     0.053 C 
ATOM     32  C   UNL     1     -29.938  -1.792  21.884  1.00  0.00     0.153 C 
ATOM     33  H   UNL     1     -30.147   3.119  24.225  1.00  0.00     0.167 HD
ATOM     34  H   UNL     1     -29.482   4.168  22.293  1.00  0.00     0.167 HD
ENDROOT
BRANCH   1  35
ATOM     35  C   UNL     1     -29.617   7.731  19.491  1.00  0.00     0.003 C 
ATOM     36  C   UNL     1     -28.580   8.374  18.939  1.00  0.00     0.009 C 
ENDBRANCH   1  35
BRANCH  22  37
ATOM     37  C   UNL     1     -28.871   7.476  27.415  1.00  0.00     0.050 C 
BRANCH  37  38
ATOM     38  C   UNL     1     -27.461   7.215  27.949  1.00  0.00     0.127 C 
BRANCH  38  39
ATOM     39  C   UNL     1     -26.571   8.428  28.059  1.00  0.00     0.305 C 
ATOM     40  O   UNL     1     -26.785   9.343  28.851  1.00  0.00    -0.252 OA
BRANCH  39  41
ATOM     41  O   UNL     1     -25.450   8.308  27.301  1.00  0.00    -0.469 OA
ATOM     42  C   UNL     1     -25.412   7.102  26.540  1.00  0.00     0.282 C 
ENDBRANCH  39  41
ENDBRANCH  38  39
ENDBRANCH  37  38
ENDBRANCH  22  37
BRANCH  32  43
ATOM     43  C   UNL     1     -28.553  -1.625  22.512  1.00  0.00     0.314 C 
ATOM     44  O   UNL     1     -27.559  -1.157  21.961  1.00  0.00    -0.252 OA
BRANCH  43  45
ATOM     45  O   UNL     1     -28.527  -2.186  23.758  1.00  0.00    -0.469 OA
ATOM     46  C   UNL     1     -27.808  -1.415  24.717  1.00  0.00     0.282 C 
ENDBRANCH  43  45
ENDBRANCH  32  43
BRANCH  31  47
ATOM     47  C   UNL     1     -29.649  -4.011  20.634  1.00  0.00     0.334 C 
ATOM     48  O   UNL     1     -30.146  -4.675  21.532  1.00  0.00    -0.247 OA
BRANCH  47  49
ATOM     49  O   UNL     1     -28.962  -4.526  19.579  1.00  0.00    -0.466 OA
ATOM     50  C   UNL     1     -28.157  -5.656  19.911  1.00  0.00     0.282 C 
ENDBRANCH  47  49
ENDBRANCH  31  47
BRANCH  23  51
ATOM     51  C   UNL     1     -31.185   2.559  28.701  1.00  0.00     0.050 C 
BRANCH  51  52
ATOM     52  C   UNL     1     -32.660   2.456  29.067  1.00  0.00     0.127 C 
BRANCH  52  53
ATOM     53  C   UNL     1     -33.477   3.469  28.322  1.00  0.00     0.303 C 
ATOM     54  O   UNL     1     -34.287   3.279  27.431  1.00  0.00    -0.252 OA
BRANCH  53  55
ATOM     55  O   UNL     1     -33.256   4.725  28.765  1.00  0.00    -0.481 OA
ATOM     56  H   UNL     1     -32.365   4.667  29.164  1.00  0.00     0.296 HD
ENDBRANCH  53  55
ENDBRANCH  52  53
ENDBRANCH  51  52
ENDBRANCH  23  51
TORSDOF 13
ENDMDL
MODEL 6
REMARK VINA RESULT:      -4.8      2.306      3.617
REMARK SMILES C=Cc1c(C)c2cc3nc(cc4[nH]c(cc5nc(cc1[nH]2)C(C)=C5CCC(=O)OC)c(CCC(=O)O)c4C)[C@@]1(C)C3=CC=C(C(=O)OC)[C@H]1C(=O)OC
REMARK SMILES IDX 3 1 4 2 5 3 6 4 7 5 8 6 9 7 10 8 11 9 12 10 13 11 14 12
REMARK SMILES IDX 15 13 16 14 17 15 18 16 19 17 20 18 21 19 22 20 23 21 24 22
REMARK SMILES IDX 31 23 37 24 38 25 39 26 40 27 41 28 42 29 43 30 44 31 49 32
REMARK SMILES IDX 2 35 1 36 25 37 26 38 27 39 28 40 29 41 30 42 50 43 51 44
REMARK SMILES IDX 52 45 53 46 45 47 46 48 47 49 48 50 32 51 33 52 34 53 35 54
REMARK SMILES IDX 36 55
REMARK H PARENT 13 33 21 34 36 56
ROOT
ATOM      1  C   UNL     1     -23.704   3.067  17.033  1.00  0.00     0.002 A 
ATOM      2  C   UNL     1     -24.821   3.097  17.940  1.00  0.00    -0.018 A 
ATOM      3  C   UNL     1     -25.499   4.291  18.505  1.00  0.00     0.047 C 
ATOM      4  C   UNL     1     -25.138   1.772  18.203  1.00  0.00     0.044 A 
ATOM      5  C   UNL     1     -26.327   1.264  19.090  1.00  0.00     0.055 A 
ATOM      6  C   UNL     1     -26.390   0.021  19.612  1.00  0.00     0.070 A 
ATOM      7  N   UNL     1     -25.520  -1.022  19.509  1.00  0.00    -0.252 NA
ATOM      8  C   UNL     1     -25.872  -2.059  20.319  1.00  0.00     0.055 A 
ATOM      9  C   UNL     1     -25.280  -3.256  20.524  1.00  0.00     0.051 A 
ATOM     10  C   UNL     1     -24.011  -3.748  19.755  1.00  0.00     0.044 A 
ATOM     11  N   UNL     1     -23.368  -3.060  18.761  1.00  0.00    -0.355 N 
ATOM     12  C   UNL     1     -22.337  -3.822  18.280  1.00  0.00     0.044 A 
ATOM     13  C   UNL     1     -21.409  -3.434  17.076  1.00  0.00     0.055 A 
ATOM     14  C   UNL     1     -21.410  -2.217  16.492  1.00  0.00     0.069 A 
ATOM     15  N   UNL     1     -22.137  -1.108  16.794  1.00  0.00    -0.248 NA
ATOM     16  C   UNL     1     -21.794  -0.091  15.960  1.00  0.00     0.069 A 
ATOM     17  C   UNL     1     -22.258   1.174  15.878  1.00  0.00     0.055 A 
ATOM     18  C   UNL     1     -23.379   1.739  16.822  1.00  0.00     0.048 A 
ATOM     19  N   UNL     1     -24.232   0.967  17.566  1.00  0.00    -0.355 N 
ATOM     20  C   UNL     1     -20.763  -0.592  15.058  1.00  0.00    -0.020 C 
ATOM     21  C   UNL     1     -20.105   0.235  14.011  1.00  0.00     0.047 C 
ATOM     22  C   UNL     1     -20.552  -1.883  15.354  1.00  0.00    -0.017 C 
ATOM     23  C   UNL     1     -22.266  -4.992  19.021  1.00  0.00    -0.019 A 
ATOM     24  C   UNL     1     -23.360  -4.952  19.958  1.00  0.00    -0.022 A 
ATOM     25  C   UNL     1     -23.730  -5.993  20.953  1.00  0.00     0.047 C 
ATOM     26  C   UNL     1     -27.129  -1.677  21.099  1.00  0.00     0.055 C 
ATOM     27  C   UNL     1     -26.720  -1.390  22.572  1.00  0.00     0.025 C 
ATOM     28  C   UNL     1     -27.520  -0.379  20.442  1.00  0.00    -0.009 C 
ATOM     29  C   UNL     1     -28.765   0.119  20.514  1.00  0.00     0.007 C 
ATOM     30  C   UNL     1     -29.790  -0.605  21.240  1.00  0.00     0.012 C 
ATOM     31  C   UNL     1     -29.637  -1.923  21.486  1.00  0.00     0.053 C 
ATOM     32  C   UNL     1     -28.351  -2.650  21.076  1.00  0.00     0.153 C 
ATOM     33  H   UNL     1     -23.623  -2.134  18.428  1.00  0.00     0.167 HD
ATOM     34  H   UNL     1     -24.181  -0.045  17.652  1.00  0.00     0.167 HD
ENDROOT
BRANCH   1  35
ATOM     35  C   UNL     1     -22.997   4.163  16.447  1.00  0.00     0.003 C 
ATOM     36  C   UNL     1     -21.912   4.763  16.953  1.00  0.00     0.009 C 
ENDBRANCH   1  35
BRANCH  22  37
ATOM     37  C   UNL     1     -19.614  -2.820  14.653  1.00  0.00     0.050 C 
BRANCH  37  38
ATOM     38  C   UNL     1     -18.138  -2.603  14.992  1.00  0.00     0.127 C 
BRANCH  38  39
ATOM     39  C   UNL     1     -17.188  -2.645  13.822  1.00  0.00     0.305 C 
ATOM     40  O   UNL     1     -16.722  -1.632  13.304  1.00  0.00    -0.252 OA
BRANCH  39  41
ATOM     41  O   UNL     1     -16.801  -3.912  13.524  1.00  0.00    -0.469 OA
ATOM     42  C   UNL     1     -15.593  -3.970  12.768  1.00  0.00     0.282 C 
ENDBRANCH  39  41
ENDBRANCH  38  39
ENDBRANCH  37  38
ENDBRANCH  22  37
BRANCH  32  43
ATOM     43  C   UNL     1     -28.623  -3.287  19.711  1.00  0.00     0.314 C 
ATOM     44  O   UNL     1     -28.968  -2.694  18.692  1.00  0.00    -0.252 OA
BRANCH  43  45
ATOM     45  O   UNL     1     -28.548  -4.648  19.799  1.00  0.00    -0.469 OA
ATOM     46  C   UNL     1     -28.034  -5.270  18.624  1.00  0.00     0.282 C 
ENDBRANCH  43  45
ENDBRANCH  32  43
BRANCH  31  47
ATOM     47  C   UNL     1     -30.682  -2.746  22.138  1.00  0.00     0.334 C 
ATOM     48  O   UNL     1     -31.876  -2.650  21.891  1.00  0.00    -0.247 OA
BRANCH  47  49
ATOM     49  O   UNL     1     -30.144  -3.623  23.028  1.00  0.00    -0.466 OA
ATOM     50  C   UNL     1     -30.739  -3.567  24.323  1.00  0.00     0.282 C 
ENDBRANCH  47  49
ENDBRANCH  31  47
BRANCH  23  51
ATOM     51  C   UNL     1     -21.265  -6.094  18.864  1.00  0.00     0.050 C 
BRANCH  51  52
ATOM     52  C   UNL     1     -20.269  -6.120  20.017  1.00  0.00     0.127 C 
BRANCH  52  53
ATOM     53  C   UNL     1     -19.685  -4.760  20.262  1.00  0.00     0.303 C 
ATOM     54  O   UNL     1     -19.912  -3.996  21.184  1.00  0.00    -0.252 OA
BRANCH  53  55
ATOM     55  O   UNL     1     -18.783  -4.417  19.318  1.00  0.00    -0.481 OA
ATOM     56  H   UNL     1     -19.223  -3.682  18.846  1.00  0.00     0.296 HD
ENDBRANCH  53  55
ENDBRANCH  52  53
ENDBRANCH  51  52
ENDBRANCH  23  51
TORSDOF 13
ENDMDL
MODEL 7
REMARK VINA RESULT:      -4.8      3.133      7.987
REMARK SMILES C=Cc1c(C)c2cc3nc(cc4[nH]c(cc5nc(cc1[nH]2)C(C)=C5CCC(=O)OC)c(CCC(=O)O)c4C)[C@@]1(C)C3=CC=C(C(=O)OC)[C@H]1C(=O)OC
REMARK SMILES IDX 3 1 4 2 5 3 6 4 7 5 8 6 9 7 10 8 11 9 12 10 13 11 14 12
REMARK SMILES IDX 15 13 16 14 17 15 18 16 19 17 20 18 21 19 22 20 23 21 24 22
REMARK SMILES IDX 31 23 37 24 38 25 39 26 40 27 41 28 42 29 43 30 44 31 49 32
REMARK SMILES IDX 2 35 1 36 25 37 26 38 27 39 28 40 29 41 30 42 50 43 51 44
REMARK SMILES IDX 52 45 53 46 45 47 46 48 47 49 48 50 32 51 33 52 34 53 35 54
REMARK SMILES IDX 36 55
REMARK H PARENT 13 33 21 34 36 56
ROOT
ATOM      1  C   UNL     1     -26.964   0.443  19.315  1.00  0.00     0.002 A 
ATOM      2  C   UNL     1     -26.634   1.762  18.847  1.00  0.00    -0.018 A 
ATOM      3  C   UNL     1     -27.526   2.948  18.774  1.00  0.00     0.047 C 
ATOM      4  C   UNL     1     -25.304   1.710  18.455  1.00  0.00     0.044 A 
ATOM      5  C   UNL     1     -24.448   2.912  17.927  1.00  0.00     0.055 A 
ATOM      6  C   UNL     1     -23.302   2.763  17.227  1.00  0.00     0.070 A 
ATOM      7  N   UNL     1     -22.651   1.631  16.839  1.00  0.00    -0.252 NA
ATOM      8  C   UNL     1     -21.608   1.907  16.007  1.00  0.00     0.055 A 
ATOM      9  C   UNL     1     -20.728   1.084  15.396  1.00  0.00     0.051 A 
ATOM     10  C   UNL     1     -20.695  -0.466  15.598  1.00  0.00     0.044 A 
ATOM     11  N   UNL     1     -21.510  -1.176  16.438  1.00  0.00    -0.355 N 
ATOM     12  C   UNL     1     -21.155  -2.498  16.400  1.00  0.00     0.044 A 
ATOM     13  C   UNL     1     -21.785  -3.631  17.284  1.00  0.00     0.055 A 
ATOM     14  C   UNL     1     -22.878  -3.457  18.057  1.00  0.00     0.069 A 
ATOM     15  N   UNL     1     -23.657  -2.354  18.227  1.00  0.00    -0.248 NA
ATOM     16  C   UNL     1     -24.676  -2.637  19.080  1.00  0.00     0.069 A 
ATOM     17  C   UNL     1     -25.673  -1.857  19.549  1.00  0.00     0.055 A 
ATOM     18  C   UNL     1     -25.840  -0.347  19.151  1.00  0.00     0.048 A 
ATOM     19  N   UNL     1     -24.854   0.425  18.595  1.00  0.00    -0.355 N 
ATOM     20  C   UNL     1     -24.537  -4.032  19.482  1.00  0.00    -0.020 C 
ATOM     21  C   UNL     1     -25.485  -4.731  20.393  1.00  0.00     0.047 C 
ATOM     22  C   UNL     1     -23.436  -4.521  18.893  1.00  0.00    -0.017 C 
ATOM     23  C   UNL     1     -20.141  -2.660  15.468  1.00  0.00    -0.019 A 
ATOM     24  C   UNL     1     -19.831  -1.344  14.967  1.00  0.00    -0.022 A 
ATOM     25  C   UNL     1     -18.789  -0.985  13.969  1.00  0.00     0.047 C 
ATOM     26  C   UNL     1     -21.545   3.415  15.770  1.00  0.00     0.055 C 
ATOM     27  C   UNL     1     -22.051   3.703  14.328  1.00  0.00     0.025 C 
ATOM     28  C   UNL     1     -22.565   3.927  16.753  1.00  0.00    -0.009 C 
ATOM     29  C   UNL     1     -22.571   5.197  17.190  1.00  0.00     0.007 C 
ATOM     30  C   UNL     1     -21.565   6.127  16.715  1.00  0.00     0.012 C 
ATOM     31  C   UNL     1     -20.414   5.662  16.187  1.00  0.00     0.053 C 
ATOM     32  C   UNL     1     -20.190   4.156  16.007  1.00  0.00     0.153 C 
ATOM     33  H   UNL     1     -22.255  -0.781  17.006  1.00  0.00     0.167 HD
ATOM     34  H   UNL     1     -23.939   0.087  18.305  1.00  0.00     0.167 HD
ENDROOT
BRANCH   1  35
ATOM     35  C   UNL     1     -28.206  -0.039  19.834  1.00  0.00     0.003 C 
ATOM     36  C   UNL     1     -28.465  -0.332  21.116  1.00  0.00     0.009 C 
ENDBRANCH   1  35
BRANCH  22  37
ATOM     37  C   UNL     1     -22.872  -5.900  19.056  1.00  0.00     0.050 C 
BRANCH  37  38
ATOM     38  C   UNL     1     -21.674  -5.983  20.004  1.00  0.00     0.127 C 
BRANCH  38  39
ATOM     39  C   UNL     1     -21.906  -5.451  21.396  1.00  0.00     0.305 C 
ATOM     40  O   UNL     1     -22.722  -5.944  22.171  1.00  0.00    -0.252 OA
BRANCH  39  41
ATOM     41  O   UNL     1     -21.013  -4.483  21.727  1.00  0.00    -0.469 OA
ATOM     42  C   UNL     1     -20.099  -4.177  20.675  1.00  0.00     0.282 C 
ENDBRANCH  39  41
ENDBRANCH  38  39
ENDBRANCH  37  38
ENDBRANCH  22  37
BRANCH  32  43
ATOM     43  C   UNL     1     -19.417   3.677  17.237  1.00  0.00     0.314 C 
ATOM     44  O   UNL     1     -19.597   4.048  18.395  1.00  0.00    -0.252 OA
BRANCH  43  45
ATOM     45  O   UNL     1     -18.395   2.850  16.864  1.00  0.00    -0.469 OA
ATOM     46  C   UNL     1     -17.656   3.326  15.741  1.00  0.00     0.282 C 
ENDBRANCH  43  45
ENDBRANCH  32  43
BRANCH  31  47
ATOM     47  C   UNL     1     -19.304   6.550  15.770  1.00  0.00     0.334 C 
ATOM     48  O   UNL     1     -18.907   6.647  14.617  1.00  0.00    -0.247 OA
BRANCH  47  49
ATOM     49  O   UNL     1     -18.798   7.244  16.824  1.00  0.00    -0.466 OA
ATOM     50  C   UNL     1     -17.754   8.150  16.470  1.00  0.00     0.282 C 
ENDBRANCH  47  49
ENDBRANCH  31  47
BRANCH  23  51
ATOM     51  C   UNL     1     -19.480  -3.943  15.075  1.00  0.00     0.050 C 
BRANCH  51  52
ATOM     52  C   UNL     1     -20.017  -4.474  13.752  1.00  0.00     0.127 C 
BRANCH  52  53
ATOM     53  C   UNL     1     -18.902  -4.801  12.805  1.00  0.00     0.303 C 
ATOM     54  O   UNL     1     -18.099  -4.040  12.291  1.00  0.00    -0.252 OA
BRANCH  53  55
ATOM     55  O   UNL     1     -18.817  -6.126  12.558  1.00  0.00    -0.481 OA
ATOM     56  H   UNL     1     -19.728  -6.442  12.724  1.00  0.00     0.296 HD
ENDBRANCH  53  55
ENDBRANCH  52  53
ENDBRANCH  51  52
ENDBRANCH  23  51
TORSDOF 13
ENDMDL
MODEL 8
REMARK VINA RESULT:      -4.7      2.796      8.221
REMARK SMILES C=Cc1c(C)c2cc3nc(cc4[nH]c(cc5nc(cc1[nH]2)C(C)=C5CCC(=O)OC)c(CCC(=O)O)c4C)[C@@]1(C)C3=CC=C(C(=O)OC)[C@H]1C(=O)OC
REMARK SMILES IDX 3 1 4 2 5 3 6 4 7 5 8 6 9 7 10 8 11 9 12 10 13 11 14 12
REMARK SMILES IDX 15 13 16 14 17 15 18 16 19 17 20 18 21 19 22 20 23 21 24 22
REMARK SMILES IDX 31 23 37 24 38 25 39 26 40 27 41 28 42 29 43 30 44 31 49 32
REMARK SMILES IDX 2 35 1 36 25 37 26 38 27 39 28 40 29 41 30 42 50 43 51 44
REMARK SMILES IDX 52 45 53 46 45 47 46 48 47 49 48 50 32 51 33 52 34 53 35 54
REMARK SMILES IDX 36 55
REMARK H PARENT 13 33 21 34 36 56
ROOT
ATOM      1  C   UNL     1     -18.636  -1.870  13.119  1.00  0.00     0.002 A 
ATOM      2  C   UNL     1     -18.953  -3.215  13.519  1.00  0.00    -0.018 A 
ATOM      3  C   UNL     1     -18.694  -4.469  12.767  1.00  0.00     0.047 C 
ATOM      4  C   UNL     1     -19.571  -3.112  14.756  1.00  0.00     0.044 A 
ATOM      5  C   UNL     1     -20.054  -4.305  15.651  1.00  0.00     0.055 A 
ATOM      6  C   UNL     1     -20.955  -4.173  16.648  1.00  0.00     0.070 A 
ATOM      7  N   UNL     1     -21.613  -3.069  17.099  1.00  0.00    -0.252 NA
ATOM      8  C   UNL     1     -22.561  -3.386  18.023  1.00  0.00     0.055 A 
ATOM      9  C   UNL     1     -23.430  -2.601  18.698  1.00  0.00     0.051 A 
ATOM     10  C   UNL     1     -23.469  -1.042  18.586  1.00  0.00     0.044 A 
ATOM     11  N   UNL     1     -22.616  -0.277  17.837  1.00  0.00    -0.355 N 
ATOM     12  C   UNL     1     -22.909   1.046  18.030  1.00  0.00     0.044 A 
ATOM     13  C   UNL     1     -22.107   2.250  17.421  1.00  0.00     0.055 A 
ATOM     14  C   UNL     1     -21.141   2.111  16.489  1.00  0.00     0.069 A 
ATOM     15  N   UNL     1     -20.678   0.987  15.877  1.00  0.00    -0.248 NA
ATOM     16  C   UNL     1     -19.714   1.317  14.978  1.00  0.00     0.069 A 
ATOM     17  C   UNL     1     -18.970   0.541  14.161  1.00  0.00     0.055 A 
ATOM     18  C   UNL     1     -19.106  -1.023  14.106  1.00  0.00     0.048 A 
ATOM     19  N   UNL     1     -19.703  -1.787  15.074  1.00  0.00    -0.355 N 
ATOM     20  C   UNL     1     -19.553   2.766  15.018  1.00  0.00    -0.020 C 
ATOM     21  C   UNL     1     -18.606   3.520  14.151  1.00  0.00     0.047 C 
ATOM     22  C   UNL     1     -20.388   3.246  15.952  1.00  0.00    -0.017 C 
ATOM     23  C   UNL     1     -24.015   1.140  18.861  1.00  0.00    -0.019 A 
ATOM     24  C   UNL     1     -24.362  -0.208  19.236  1.00  0.00    -0.022 A 
ATOM     25  C   UNL     1     -25.459  -0.634  20.144  1.00  0.00     0.047 C 
ATOM     26  C   UNL     1     -22.580  -4.901  18.219  1.00  0.00     0.055 C 
ATOM     27  C   UNL     1     -23.855  -5.466  17.531  1.00  0.00     0.025 C 
ATOM     28  C   UNL     1     -21.371  -5.331  17.430  1.00  0.00    -0.009 C 
ATOM     29  C   UNL     1     -20.757  -6.507  17.636  1.00  0.00     0.007 C 
ATOM     30  C   UNL     1     -21.255  -7.411  18.655  1.00  0.00     0.012 C 
ATOM     31  C   UNL     1     -22.036  -6.941  19.649  1.00  0.00     0.053 C 
ATOM     32  C   UNL     1     -22.473  -5.472  19.670  1.00  0.00     0.153 C 
ATOM     33  H   UNL     1     -21.875  -0.637  17.240  1.00  0.00     0.167 HD
ATOM     34  H   UNL     1     -20.192  -1.423  15.888  1.00  0.00     0.167 HD
ENDROOT
BRANCH   1  35
ATOM     35  C   UNL     1     -17.987  -1.419  11.926  1.00  0.00     0.003 C 
ATOM     36  C   UNL     1     -16.779  -1.801  11.493  1.00  0.00     0.009 C 
ENDBRANCH   1  35
BRANCH  22  37
ATOM     37  C   UNL     1     -20.531   4.677  16.374  1.00  0.00     0.050 C 
BRANCH  37  38
ATOM     38  C   UNL     1     -19.575   5.102  17.491  1.00  0.00     0.127 C 
BRANCH  38  39
ATOM     39  C   UNL     1     -19.715   6.528  17.961  1.00  0.00     0.305 C 
ATOM     40  O   UNL     1     -19.984   6.824  19.123  1.00  0.00    -0.252 OA
BRANCH  39  41
ATOM     41  O   UNL     1     -19.362   7.418  16.999  1.00  0.00    -0.469 OA
ATOM     42  C   UNL     1     -18.246   8.229  17.364  1.00  0.00     0.282 C 
ENDBRANCH  39  41
ENDBRANCH  38  39
ENDBRANCH  37  38
ENDBRANCH  22  37
BRANCH  32  43
ATOM     43  C   UNL     1     -21.478  -4.731  20.566  1.00  0.00     0.314 C 
ATOM     44  O   UNL     1     -21.726  -3.753  21.268  1.00  0.00    -0.252 OA
BRANCH  43  45
ATOM     45  O   UNL     1     -20.219  -5.231  20.392  1.00  0.00    -0.469 OA
ATOM     46  C   UNL     1     -19.233  -4.229  20.159  1.00  0.00     0.282 C 
ENDBRANCH  43  45
ENDBRANCH  32  43
BRANCH  31  47
ATOM     47  C   UNL     1     -22.502  -7.785  20.773  1.00  0.00     0.334 C 
ATOM     48  O   UNL     1     -23.679  -7.942  21.064  1.00  0.00    -0.247 OA
BRANCH  47  49
ATOM     49  O   UNL     1     -21.459  -8.366  21.426  1.00  0.00    -0.466 OA
ATOM     50  C   UNL     1     -21.267  -7.879  22.752  1.00  0.00     0.282 C 
ENDBRANCH  47  49
ENDBRANCH  31  47
BRANCH  23  51
ATOM     51  C   UNL     1     -24.701   2.394  19.303  1.00  0.00     0.050 C 
BRANCH  51  52
ATOM     52  C   UNL     1     -25.657   2.920  18.240  1.00  0.00     0.127 C 
BRANCH  52  53
ATOM     53  C   UNL     1     -25.597   4.416  18.148  1.00  0.00     0.303 C 
ATOM     54  O   UNL     1     -25.957   5.131  17.228  1.00  0.00    -0.252 OA
BRANCH  53  55
ATOM     55  O   UNL     1     -25.098   4.974  19.272  1.00  0.00    -0.481 OA
ATOM     56  H   UNL     1     -25.755   4.728  19.954  1.00  0.00     0.296 HD
ENDBRANCH  53  55
ENDBRANCH  52  53
ENDBRANCH  51  52
ENDBRANCH  23  51
TORSDOF 13
ENDMDL
MODEL 9
REMARK VINA RESULT:      -4.7     10.449     13.077
REMARK SMILES C=Cc1c(C)c2cc3nc(cc4[nH]c(cc5nc(cc1[nH]2)C(C)=C5CCC(=O)OC)c(CCC(=O)O)c4C)[C@@]1(C)C3=CC=C(C(=O)OC)[C@H]1C(=O)OC
REMARK SMILES IDX 3 1 4 2 5 3 6 4 7 5 8 6 9 7 10 8 11 9 12 10 13 11 14 12
REMARK SMILES IDX 15 13 16 14 17 15 18 16 19 17 20 18 21 19 22 20 23 21 24 22
REMARK SMILES IDX 31 23 37 24 38 25 39 26 40 27 41 28 42 29 43 30 44 31 49 32
REMARK SMILES IDX 2 35 1 36 25 37 26 38 27 39 28 40 29 41 30 42 50 43 51 44
REMARK SMILES IDX 52 45 53 46 45 47 46 48 47 49 48 50 32 51 33 52 34 53 35 54
REMARK SMILES IDX 36 55
REMARK H PARENT 13 33 21 34 36 56
ROOT
ATOM      1  C   UNL     1     -31.928   3.324  18.110  1.00  0.00     0.002 A 
ATOM      2  C   UNL     1     -32.281   1.975  18.461  1.00  0.00    -0.018 A 
ATOM      3  C   UNL     1     -33.142   1.034  17.699  1.00  0.00     0.047 C 
ATOM      4  C   UNL     1     -31.665   1.721  19.678  1.00  0.00     0.044 A 
ATOM      5  C   UNL     1     -31.688   0.363  20.461  1.00  0.00     0.055 A 
ATOM      6  C   UNL     1     -31.400   0.254  21.776  1.00  0.00     0.070 A 
ATOM      7  N   UNL     1     -31.042   1.209  22.679  1.00  0.00    -0.252 NA
ATOM      8  C   UNL     1     -30.994   0.714  23.947  1.00  0.00     0.055 A 
ATOM      9  C   UNL     1     -30.699   1.320  25.118  1.00  0.00     0.051 A 
ATOM     10  C   UNL     1     -30.254   2.813  25.242  1.00  0.00     0.044 A 
ATOM     11  N   UNL     1     -30.066   3.676  24.196  1.00  0.00    -0.355 N 
ATOM     12  C   UNL     1     -29.620   4.878  24.678  1.00  0.00     0.044 A 
ATOM     13  C   UNL     1     -29.200   6.107  23.797  1.00  0.00     0.055 A 
ATOM     14  C   UNL     1     -29.405   6.178  22.465  1.00  0.00     0.069 A 
ATOM     15  N   UNL     1     -30.000   5.286  21.627  1.00  0.00    -0.248 NA
ATOM     16  C   UNL     1     -30.016   5.782  20.362  1.00  0.00     0.069 A 
ATOM     17  C   UNL     1     -30.484   5.249  19.214  1.00  0.00     0.055 A 
ATOM     18  C   UNL     1     -31.153   3.830  19.137  1.00  0.00     0.048 A 
ATOM     19  N   UNL     1     -31.033   2.860  20.098  1.00  0.00    -0.355 N 
ATOM     20  C   UNL     1     -29.384   7.096  20.398  1.00  0.00    -0.020 C 
ATOM     21  C   UNL     1     -29.235   7.978  19.208  1.00  0.00     0.047 C 
ATOM     22  C   UNL     1     -28.984   7.325  21.658  1.00  0.00    -0.017 C 
ATOM     23  C   UNL     1     -29.584   4.817  26.062  1.00  0.00    -0.019 A 
ATOM     24  C   UNL     1     -29.974   3.477  26.424  1.00  0.00    -0.022 A 
ATOM     25  C   UNL     1     -30.061   2.905  27.794  1.00  0.00     0.047 C 
ATOM     26  C   UNL     1     -31.393  -0.761  23.922  1.00  0.00     0.055 C 
ATOM     27  C   UNL     1     -32.823  -0.890  24.519  1.00  0.00     0.025 C 
ATOM     28  C   UNL     1     -31.457  -1.040  22.443  1.00  0.00    -0.009 C 
ATOM     29  C   UNL     1     -31.373  -2.283  21.940  1.00  0.00     0.007 C 
ATOM     30  C   UNL     1     -31.209  -3.412  22.834  1.00  0.00     0.012 C 
ATOM     31  C   UNL     1     -30.737  -3.220  24.083  1.00  0.00     0.053 C 
ATOM     32  C   UNL     1     -30.448  -1.806  24.599  1.00  0.00     0.153 C 
ATOM     33  H   UNL     1     -30.225   3.455  23.216  1.00  0.00     0.167 HD
ATOM     34  H   UNL     1     -30.570   2.979  20.996  1.00  0.00     0.167 HD
ENDROOT
BRANCH   1  35
ATOM     35  C   UNL     1     -32.297   4.073  16.949  1.00  0.00     0.003 C 
ATOM     36  C   UNL     1     -31.696   4.023  15.752  1.00  0.00     0.009 C 
ENDBRANCH   1  35
BRANCH  22  37
ATOM     37  C   UNL     1     -28.243   8.528  22.157  1.00  0.00     0.050 C 
BRANCH  37  38
ATOM     38  C   UNL     1     -26.723   8.442  21.999  1.00  0.00     0.127 C 
BRANCH  38  39
ATOM     39  C   UNL     1     -25.951   8.166  23.265  1.00  0.00     0.305 C 
ATOM     40  O   UNL     1     -24.740   7.959  23.276  1.00  0.00    -0.252 OA
BRANCH  39  41
ATOM     41  O   UNL     1     -26.718   8.327  24.375  1.00  0.00    -0.469 OA
ATOM     42  C   UNL     1     -26.209   9.312  25.272  1.00  0.00     0.282 C 
ENDBRANCH  39  41
ENDBRANCH  38  39
ENDBRANCH  37  38
ENDBRANCH  22  37
BRANCH  32  43
ATOM     43  C   UNL     1     -28.957  -1.550  24.366  1.00  0.00     0.314 C 
ATOM     44  O   UNL     1     -28.319  -1.854  23.362  1.00  0.00    -0.252 OA
BRANCH  43  45
ATOM     45  O   UNL     1     -28.383  -1.034  25.494  1.00  0.00    -0.469 OA
ATOM     46  C   UNL     1     -27.718  -2.008  26.294  1.00  0.00     0.282 C 
ENDBRANCH  43  45
ENDBRANCH  32  43
BRANCH  31  47
ATOM     47  C   UNL     1     -30.455  -4.335  25.016  1.00  0.00     0.334 C 
ATOM     48  O   UNL     1     -29.962  -5.400  24.675  1.00  0.00    -0.247 OA
BRANCH  47  49
ATOM     49  O   UNL     1     -30.802  -4.016  26.293  1.00  0.00    -0.466 OA
ATOM     50  C   UNL     1     -30.150  -4.810  27.282  1.00  0.00     0.282 C 
ENDBRANCH  47  49
ENDBRANCH  31  47
BRANCH  23  51
ATOM     51  C   UNL     1     -29.196   5.917  27.000  1.00  0.00     0.050 C 
BRANCH  51  52
ATOM     52  C   UNL     1     -27.683   6.061  27.106  1.00  0.00     0.127 C 
BRANCH  52  53
ATOM     53  C   UNL     1     -27.307   7.101  28.119  1.00  0.00     0.303 C 
ATOM     54  O   UNL     1     -26.242   7.244  28.695  1.00  0.00    -0.252 OA
BRANCH  53  55
ATOM     55  O   UNL     1     -28.313   7.971  28.351  1.00  0.00    -0.481 OA
ATOM     56  H   UNL     1     -28.995   7.701  27.705  1.00  0.00     0.296 HD
ENDBRANCH  53  55
ENDBRANCH  52  53
ENDBRANCH  51  52
ENDBRANCH  23  51
TORSDOF 13
ENDMDL
