MODEL 1
REMARK VINA RESULT:      -5.6      0.000      0.000
REMARK  6 active torsions:
REMARK  status: ('A' for Active; 'I' for Inactive)
REMARK    1  A    between atoms: C5_5  and  O1_6 
REMARK    2  A    between atoms: O1_6  and  C6_7 
REMARK    3  A    between atoms: C6_7  and  C7_8 
REMARK    4  A    between atoms: C9_10  and  C10_11 
REMARK       I    between atoms: C10_11  and  N1_13 
REMARK    5  A    between atoms: N1_13  and  C11_14 
REMARK    6  A    between atoms: C11_14  and  C12_15 
ROOT
HETATM    1  C7  UNL     1       8.231  -6.986  -0.049  1.00  0.00     0.102 A 
HETATM    2  C8  UNL     1       7.842  -7.771  -1.105  1.00  0.00     0.074 A 
HETATM    3  C9  UNL     1       8.011  -7.041  -2.259  1.00  0.00     0.125 A 
HETATM    4  N3  UNL     1       8.492  -5.852  -1.854  1.00  0.00    -0.256 N 
ATOM      5  H3  UNL     1       8.729  -5.073  -2.469  1.00  0.00     0.195 HD
HETATM    6  O4  UNL     1       8.610  -5.850  -0.555  1.00  0.00    -0.239 OA
ENDROOT
BRANCH   3   7
HETATM    7  C10 UNL     1       7.720  -7.517  -3.608  1.00  0.00     0.270 C 
HETATM    8  O2  UNL     1       6.817  -8.363  -3.833  1.00  0.00    -0.266 OA
HETATM    9  N1  UNL     1       8.465  -7.022  -4.706  1.00  0.00    -0.351 N 
HETATM   10  H9  UNL     1       9.222  -6.315  -4.474  1.00  0.00     0.163 HD
BRANCH   9  11
HETATM   11  C11 UNL     1       8.281  -7.403  -6.072  1.00  0.00     0.166 C 
BRANCH  11  12
HETATM   12  C12 UNL     1       7.960  -6.289  -6.963  1.00  0.00     0.015 A 
HETATM   13  C13 UNL     1       8.904  -5.596  -7.730  1.00  0.00     0.039 A 
HETATM   14  C14 UNL     1      10.362  -5.880  -7.784  1.00  0.00     0.071 C 
HETATM   15  N2  UNL     1       8.243  -4.632  -8.414  1.00  0.00    -0.265 N 
HETATM   16  O3  UNL     1       6.979  -4.689  -8.121  1.00  0.00    -0.242 OA
ATOM     17  H2  UNL     1       8.671  -3.966  -9.059  1.00  0.00     0.194 HD
HETATM   18  C15 UNL     1       6.766  -5.667  -7.255  1.00  0.00     0.082 A 
HETATM   19  C16 UNL     1       5.459  -6.065  -6.665  1.00  0.00     0.079 C 
ENDBRANCH  11  12
ENDBRANCH   9  11
ENDBRANCH   3   7
BRANCH   1  20
HETATM   20  C6  UNL     1       8.194  -7.431   1.395  1.00  0.00     0.242 C 
BRANCH  20  21
HETATM   21  O1  UNL     1       9.470  -7.401   1.923  1.00  0.00    -0.345 OA
BRANCH  21  22
HETATM   22  C5  UNL     1      10.137  -6.489   2.667  1.00  0.00     0.069 A 
HETATM   23  C4  UNL     1      10.904  -5.554   1.970  1.00  0.00     0.037 A 
HETATM   24  C3  UNL     1      11.633  -4.572   2.582  1.00  0.00     0.010 A 
HETATM   25  C2  UNL     1      11.626  -4.481   3.954  1.00  0.00    -0.056 A 
HETATM   26  C1  UNL     1      12.415  -3.417   4.656  1.00  0.00     0.049 C 
HETATM   27  C18 UNL     1      10.879  -5.388   4.669  1.00  0.00    -0.053 A 
HETATM   28  C17 UNL     1      10.131  -6.394   4.045  1.00  0.00     0.044 A 
HETATM   29  C19 UNL     1      10.908  -5.250   6.156  1.00  0.00     0.049 C 
ENDBRANCH  21  22
ENDBRANCH  20  21
ENDBRANCH   1  20
TORSDOF 6
ENDMDL
MODEL 2
REMARK VINA RESULT:      -5.5     10.598     13.830
REMARK  6 active torsions:
REMARK  status: ('A' for Active; 'I' for Inactive)
REMARK    1  A    between atoms: C5_5  and  O1_6 
REMARK    2  A    between atoms: O1_6  and  C6_7 
REMARK    3  A    between atoms: C6_7  and  C7_8 
REMARK    4  A    between atoms: C9_10  and  C10_11 
REMARK       I    between atoms: C10_11  and  N1_13 
REMARK    5  A    between atoms: N1_13  and  C11_14 
REMARK    6  A    between atoms: C11_14  and  C12_15 
ROOT
HETATM    1  C7  UNL     1      -4.926  -4.792   0.584  1.00  0.00     0.102 A 
HETATM    2  C8  UNL     1      -4.207  -5.948   0.405  1.00  0.00     0.074 A 
HETATM    3  C9  UNL     1      -4.538  -6.812   1.422  1.00  0.00     0.125 A 
HETATM    4  N3  UNL     1      -5.437  -6.147   2.170  1.00  0.00    -0.256 N 
ATOM      5  H3  UNL     1      -5.887  -6.510   3.010  1.00  0.00     0.195 HD
HETATM    6  O4  UNL     1      -5.644  -4.967   1.653  1.00  0.00    -0.239 OA
ENDROOT
BRANCH   3   7
HETATM    7  C10 UNL     1      -3.998  -8.158   1.594  1.00  0.00     0.270 C 
HETATM    8  O2  UNL     1      -4.703  -9.106   2.027  1.00  0.00    -0.266 OA
HETATM    9  N1  UNL     1      -2.645  -8.422   1.269  1.00  0.00    -0.351 N 
HETATM   10  H9  UNL     1      -2.083  -7.596   0.913  1.00  0.00     0.163 HD
BRANCH   9  11
HETATM   11  C11 UNL     1      -1.997  -9.690   1.390  1.00  0.00     0.166 C 
BRANCH  11  12
HETATM   12  C12 UNL     1      -0.891  -9.706   2.348  1.00  0.00     0.015 A 
HETATM   13  C13 UNL     1      -1.048  -9.860   3.730  1.00  0.00     0.039 A 
HETATM   14  C14 UNL     1      -2.337 -10.048   4.446  1.00  0.00     0.071 C 
HETATM   15  N2  UNL     1       0.186  -9.812   4.287  1.00  0.00    -0.265 N 
HETATM   16  O3  UNL     1       1.071  -9.643   3.351  1.00  0.00    -0.242 OA
ATOM     17  H2  UNL     1       0.388  -9.897   5.283  1.00  0.00     0.194 HD
HETATM   18  C15 UNL     1       0.469  -9.574   2.175  1.00  0.00     0.082 A 
HETATM   19  C16 UNL     1       1.121  -9.384   0.851  1.00  0.00     0.079 C 
ENDBRANCH  11  12
ENDBRANCH   9  11
ENDBRANCH   3   7
BRANCH   1  20
HETATM   20  C6  UNL     1      -4.840  -3.593  -0.333  1.00  0.00     0.242 C 
BRANCH  20  21
HETATM   21  O1  UNL     1      -3.546  -3.110  -0.346  1.00  0.00    -0.345 OA
BRANCH  21  22
HETATM   22  C5  UNL     1      -2.535  -3.210  -1.240  1.00  0.00     0.069 A 
HETATM   23  C4  UNL     1      -1.747  -2.073  -1.421  1.00  0.00     0.037 A 
HETATM   24  C3  UNL     1      -0.691  -2.019  -2.289  1.00  0.00     0.010 A 
HETATM   25  C2  UNL     1      -0.370  -3.131  -3.031  1.00  0.00    -0.056 A 
HETATM   26  C1  UNL     1       0.781  -3.106  -3.991  1.00  0.00     0.049 C 
HETATM   27  C18 UNL     1      -1.128  -4.268  -2.873  1.00  0.00    -0.053 A 
HETATM   28  C17 UNL     1      -2.209  -4.326  -1.986  1.00  0.00     0.044 A 
HETATM   29  C19 UNL     1      -0.742  -5.446  -3.705  1.00  0.00     0.049 C 
ENDBRANCH  21  22
ENDBRANCH  20  21
ENDBRANCH   1  20
TORSDOF 6
ENDMDL
MODEL 3
REMARK VINA RESULT:      -5.4     13.617     15.167
REMARK  6 active torsions:
REMARK  status: ('A' for Active; 'I' for Inactive)
REMARK    1  A    between atoms: C5_5  and  O1_6 
REMARK    2  A    between atoms: O1_6  and  C6_7 
REMARK    3  A    between atoms: C6_7  and  C7_8 
REMARK    4  A    between atoms: C9_10  and  C10_11 
REMARK       I    between atoms: C10_11  and  N1_13 
REMARK    5  A    between atoms: N1_13  and  C11_14 
REMARK    6  A    between atoms: C11_14  and  C12_15 
ROOT
HETATM    1  C7  UNL     1      -5.160  -7.596   2.410  1.00  0.00     0.102 A 
HETATM    2  C8  UNL     1      -5.456  -6.764   1.359  1.00  0.00     0.074 A 
HETATM    3  C9  UNL     1      -4.817  -5.565   1.577  1.00  0.00     0.125 A 
HETATM    4  N3  UNL     1      -4.167  -5.721   2.744  1.00  0.00    -0.256 N 
ATOM      5  H3  UNL     1      -3.591  -5.011   3.196  1.00  0.00     0.195 HD
HETATM    6  O4  UNL     1      -4.387  -6.921   3.208  1.00  0.00    -0.239 OA
ENDROOT
BRANCH   3   7
HETATM    7  C10 UNL     1      -4.868  -4.409   0.687  1.00  0.00     0.270 C 
HETATM    8  O2  UNL     1      -5.946  -4.010   0.177  1.00  0.00    -0.266 OA
HETATM    9  N1  UNL     1      -3.679  -3.704   0.380  1.00  0.00    -0.351 N 
HETATM   10  H9  UNL     1      -2.790  -4.074   0.826  1.00  0.00     0.163 HD
BRANCH   9  11
HETATM   11  C11 UNL     1      -3.591  -2.559  -0.472  1.00  0.00     0.166 C 
BRANCH  11  12
HETATM   12  C12 UNL     1      -2.274  -2.366  -1.079  1.00  0.00     0.015 A 
HETATM   13  C13 UNL     1      -1.457  -1.253  -0.852  1.00  0.00     0.039 A 
HETATM   14  C14 UNL     1      -1.774  -0.106   0.040  1.00  0.00     0.071 C 
HETATM   15  N2  UNL     1      -0.331  -1.418  -1.586  1.00  0.00    -0.265 N 
HETATM   16  O3  UNL     1      -0.404  -2.542  -2.234  1.00  0.00    -0.242 OA
ATOM     17  H2  UNL     1       0.452  -0.765  -1.623  1.00  0.00     0.194 HD
HETATM   18  C15 UNL     1      -1.552  -3.141  -1.959  1.00  0.00     0.082 A 
HETATM   19  C16 UNL     1      -2.026  -4.445  -2.496  1.00  0.00     0.079 C 
ENDBRANCH  11  12
ENDBRANCH   9  11
ENDBRANCH   3   7
BRANCH   1  20
HETATM   20  C6  UNL     1      -5.676  -9.011   2.539  1.00  0.00     0.242 C 
BRANCH  20  21
HETATM   21  O1  UNL     1      -6.812  -9.022   3.325  1.00  0.00    -0.345 OA
BRANCH  21  22
HETATM   22  C5  UNL     1      -7.035  -8.721   4.625  1.00  0.00     0.069 A 
HETATM   23  C4  UNL     1      -8.300  -8.227   4.944  1.00  0.00     0.037 A 
HETATM   24  C3  UNL     1      -8.676  -7.880   6.213  1.00  0.00     0.010 A 
HETATM   25  C2  UNL     1      -7.776  -8.015   7.244  1.00  0.00    -0.056 A 
HETATM   26  C1  UNL     1      -8.154  -7.643   8.646  1.00  0.00     0.049 C 
HETATM   27  C18 UNL     1      -6.520  -8.501   6.961  1.00  0.00    -0.053 A 
HETATM   28  C17 UNL     1      -6.134  -8.858   5.663  1.00  0.00     0.044 A 
HETATM   29  C19 UNL     1      -5.579  -8.625   8.113  1.00  0.00     0.049 C 
ENDBRANCH  21  22
ENDBRANCH  20  21
ENDBRANCH   1  20
TORSDOF 6
ENDMDL
MODEL 4
REMARK VINA RESULT:      -5.3     13.666     15.033
REMARK  6 active torsions:
REMARK  status: ('A' for Active; 'I' for Inactive)
REMARK    1  A    between atoms: C5_5  and  O1_6 
REMARK    2  A    between atoms: O1_6  and  C6_7 
REMARK    3  A    between atoms: C6_7  and  C7_8 
REMARK    4  A    between atoms: C9_10  and  C10_11 
REMARK       I    between atoms: C10_11  and  N1_13 
REMARK    5  A    between atoms: N1_13  and  C11_14 
REMARK    6  A    between atoms: C11_14  and  C12_15 
ROOT
HETATM    1  C7  UNL     1      -6.077  -1.136  -0.145  1.00  0.00     0.102 A 
HETATM    2  C8  UNL     1      -4.855  -0.642  -0.525  1.00  0.00     0.074 A 
HETATM    3  C9  UNL     1      -3.933  -1.657  -0.402  1.00  0.00     0.125 A 
HETATM    4  N3  UNL     1      -4.634  -2.715   0.045  1.00  0.00    -0.256 N 
ATOM      5  H3  UNL     1      -4.245  -3.637   0.242  1.00  0.00     0.195 HD
HETATM    6  O4  UNL     1      -5.887  -2.379   0.185  1.00  0.00    -0.239 OA
ENDROOT
BRANCH   3   7
HETATM    7  C10 UNL     1      -2.511  -1.547  -0.714  1.00  0.00     0.270 C 
HETATM    8  O2  UNL     1      -1.669  -1.184   0.147  1.00  0.00    -0.266 OA
HETATM    9  N1  UNL     1      -2.050  -1.855  -2.017  1.00  0.00    -0.351 N 
HETATM   10  H9  UNL     1      -2.792  -2.152  -2.715  1.00  0.00     0.163 HD
BRANCH   9  11
HETATM   11  C11 UNL     1      -0.689  -1.790  -2.451  1.00  0.00     0.166 C 
BRANCH  11  12
HETATM   12  C12 UNL     1      -0.408  -2.578  -3.651  1.00  0.00     0.015 A 
HETATM   13  C13 UNL     1      -0.563  -2.105  -4.959  1.00  0.00     0.039 A 
HETATM   14  C14 UNL     1      -1.014  -0.742  -5.346  1.00  0.00     0.071 C 
HETATM   15  N2  UNL     1      -0.221  -3.111  -5.798  1.00  0.00    -0.265 N 
HETATM   16  O3  UNL     1       0.127  -4.150  -5.101  1.00  0.00    -0.242 OA
ATOM     17  H2  UNL     1      -0.235  -3.061  -6.817  1.00  0.00     0.194 HD
HETATM   18  C15 UNL     1       0.030  -3.874  -3.811  1.00  0.00     0.082 A 
HETATM   19  C16 UNL     1       0.334  -4.791  -2.679  1.00  0.00     0.079 C 
ENDBRANCH  11  12
ENDBRANCH   9  11
ENDBRANCH   3   7
BRANCH   1  20
HETATM   20  C6  UNL     1      -7.353  -0.324  -0.141  1.00  0.00     0.242 C 
BRANCH  20  21
HETATM   21  O1  UNL     1      -7.113   0.915   0.421  1.00  0.00    -0.345 OA
BRANCH  21  22
HETATM   22  C5  UNL     1      -7.022   1.343   1.701  1.00  0.00     0.069 A 
HETATM   23  C4  UNL     1      -5.761   1.754   2.134  1.00  0.00     0.037 A 
HETATM   24  C3  UNL     1      -5.511   2.211   3.399  1.00  0.00     0.010 A 
HETATM   25  C2  UNL     1      -6.541   2.279   4.308  1.00  0.00    -0.056 A 
HETATM   26  C1  UNL     1      -6.302   2.775   5.702  1.00  0.00     0.049 C 
HETATM   27  C18 UNL     1      -7.796   1.882   3.910  1.00  0.00    -0.053 A 
HETATM   28  C17 UNL     1      -8.055   1.413   2.616  1.00  0.00     0.044 A 
HETATM   29  C19 UNL     1      -8.879   1.970   4.934  1.00  0.00     0.049 C 
ENDBRANCH  21  22
ENDBRANCH  20  21
ENDBRANCH   1  20
TORSDOF 6
ENDMDL
MODEL 5
REMARK VINA RESULT:      -5.3      1.723      2.505
REMARK  6 active torsions:
REMARK  status: ('A' for Active; 'I' for Inactive)
REMARK    1  A    between atoms: C5_5  and  O1_6 
REMARK    2  A    between atoms: O1_6  and  C6_7 
REMARK    3  A    between atoms: C6_7  and  C7_8 
REMARK    4  A    between atoms: C9_10  and  C10_11 
REMARK       I    between atoms: C10_11  and  N1_13 
REMARK    5  A    between atoms: N1_13  and  C11_14 
REMARK    6  A    between atoms: C11_14  and  C12_15 
ROOT
HETATM    1  C7  UNL     1       7.817  -7.099  -1.118  1.00  0.00     0.102 A 
HETATM    2  C8  UNL     1       7.648  -7.977  -2.158  1.00  0.00     0.074 A 
HETATM    3  C9  UNL     1       7.711  -7.260  -3.330  1.00  0.00     0.125 A 
HETATM    4  N3  UNL     1       7.914  -5.985  -2.951  1.00  0.00    -0.256 N 
ATOM      5  H3  UNL     1       8.008  -5.191  -3.584  1.00  0.00     0.195 HD
HETATM    6  O4  UNL     1       7.972  -5.923  -1.649  1.00  0.00    -0.239 OA
ENDROOT
BRANCH   3   7
HETATM    7  C10 UNL     1       7.585  -7.823  -4.671  1.00  0.00     0.270 C 
HETATM    8  O2  UNL     1       8.591  -8.073  -5.384  1.00  0.00    -0.266 OA
HETATM    9  N1  UNL     1       6.302  -8.101  -5.201  1.00  0.00    -0.351 N 
HETATM   10  H9  UNL     1       5.478  -7.871  -4.573  1.00  0.00     0.163 HD
BRANCH   9  11
HETATM   11  C11 UNL     1       6.041  -8.652  -6.495  1.00  0.00     0.166 C 
BRANCH  11  12
HETATM   12  C12 UNL     1       5.658  -7.659  -7.499  1.00  0.00     0.015 A 
HETATM   13  C13 UNL     1       4.352  -7.192  -7.687  1.00  0.00     0.039 A 
HETATM   14  C14 UNL     1       3.157  -7.602  -6.901  1.00  0.00     0.071 C 
HETATM   15  N2  UNL     1       4.382  -6.299  -8.704  1.00  0.00    -0.265 N 
HETATM   16  O3  UNL     1       5.600  -6.191  -9.143  1.00  0.00    -0.242 OA
ATOM     17  H2  UNL     1       3.575  -5.790  -9.068  1.00  0.00     0.194 HD
HETATM   18  C15 UNL     1       6.395  -6.989  -8.449  1.00  0.00     0.082 A 
HETATM   19  C16 UNL     1       7.862  -7.164  -8.634  1.00  0.00     0.079 C 
ENDBRANCH  11  12
ENDBRANCH   9  11
ENDBRANCH   3   7
BRANCH   1  20
HETATM   20  C6  UNL     1       7.812  -7.504   0.340  1.00  0.00     0.242 C 
BRANCH  20  21
HETATM   21  O1  UNL     1       9.107  -7.524   0.821  1.00  0.00    -0.345 OA
BRANCH  21  22
HETATM   22  C5  UNL     1       9.822  -6.658   1.575  1.00  0.00     0.069 A 
HETATM   23  C4  UNL     1      10.547  -5.683   0.888  1.00  0.00     0.037 A 
HETATM   24  C3  UNL     1      11.317  -4.739   1.510  1.00  0.00     0.010 A 
HETATM   25  C2  UNL     1      11.397  -4.731   2.883  1.00  0.00    -0.056 A 
HETATM   26  C1  UNL     1      12.232  -3.712   3.597  1.00  0.00     0.049 C 
HETATM   27  C18 UNL     1      10.693  -5.680   3.588  1.00  0.00    -0.053 A 
HETATM   28  C17 UNL     1       9.903  -6.647   2.953  1.00  0.00     0.044 A 
HETATM   29  C19 UNL     1      10.815  -5.632   5.075  1.00  0.00     0.049 C 
ENDBRANCH  21  22
ENDBRANCH  20  21
ENDBRANCH   1  20
TORSDOF 6
ENDMDL
MODEL 6
REMARK VINA RESULT:      -5.3      1.844      2.998
REMARK  6 active torsions:
REMARK  status: ('A' for Active; 'I' for Inactive)
REMARK    1  A    between atoms: C5_5  and  O1_6 
REMARK    2  A    between atoms: O1_6  and  C6_7 
REMARK    3  A    between atoms: C6_7  and  C7_8 
REMARK    4  A    between atoms: C9_10  and  C10_11 
REMARK       I    between atoms: C10_11  and  N1_13 
REMARK    5  A    between atoms: N1_13  and  C11_14 
REMARK    6  A    between atoms: C11_14  and  C12_15 
ROOT
HETATM    1  C7  UNL     1       7.272  -8.542  -1.652  1.00  0.00     0.102 A 
HETATM    2  C8  UNL     1       7.726  -7.469  -2.378  1.00  0.00     0.074 A 
HETATM    3  C9  UNL     1       7.492  -7.730  -3.708  1.00  0.00     0.125 A 
HETATM    4  N3  UNL     1       6.909  -8.942  -3.731  1.00  0.00    -0.256 N 
ATOM      5  H3  UNL     1       6.604  -9.433  -4.571  1.00  0.00     0.195 HD
HETATM    6  O4  UNL     1       6.793  -9.392  -2.511  1.00  0.00    -0.239 OA
ENDROOT
BRANCH   3   7
HETATM    7  C10 UNL     1       7.822  -6.836  -4.814  1.00  0.00     0.270 C 
HETATM    8  O2  UNL     1       7.105  -5.842  -5.101  1.00  0.00    -0.266 OA
HETATM    9  N1  UNL     1       8.977  -7.078  -5.596  1.00  0.00    -0.351 N 
HETATM   10  H9  UNL     1       9.552  -7.928  -5.326  1.00  0.00     0.163 HD
BRANCH   9  11
HETATM   11  C11 UNL     1       9.412  -6.281  -6.701  1.00  0.00     0.166 C 
BRANCH  11  12
HETATM   12  C12 UNL     1       8.868  -6.704  -7.991  1.00  0.00     0.015 A 
HETATM   13  C13 UNL     1       7.882  -6.007  -8.698  1.00  0.00     0.039 A 
HETATM   14  C14 UNL     1       7.243  -4.731  -8.276  1.00  0.00     0.071 C 
HETATM   15  N2  UNL     1       7.626  -6.701  -9.832  1.00  0.00    -0.265 N 
HETATM   16  O3  UNL     1       8.378  -7.760  -9.864  1.00  0.00    -0.242 OA
ATOM     17  H2  UNL     1       6.949  -6.436 -10.548  1.00  0.00     0.194 HD
HETATM   18  C15 UNL     1       9.137  -7.800  -8.781  1.00  0.00     0.082 A 
HETATM   19  C16 UNL     1      10.136  -8.846  -8.432  1.00  0.00     0.079 C 
ENDBRANCH  11  12
ENDBRANCH   9  11
ENDBRANCH   3   7
BRANCH   1  20
HETATM   20  C6  UNL     1       7.350  -8.637  -0.145  1.00  0.00     0.242 C 
BRANCH  20  21
HETATM   21  O1  UNL     1       8.664  -8.506   0.261  1.00  0.00    -0.345 OA
BRANCH  21  22
HETATM   22  C5  UNL     1       9.321  -7.554   0.962  1.00  0.00     0.069 A 
HETATM   23  C4  UNL     1       9.311  -7.683   2.351  1.00  0.00     0.037 A 
HETATM   24  C3  UNL     1       9.929  -6.800   3.194  1.00  0.00     0.010 A 
HETATM   25  C2  UNL     1      10.602  -5.723   2.668  1.00  0.00    -0.056 A 
HETATM   26  C1  UNL     1      11.290  -4.736   3.562  1.00  0.00     0.049 C 
HETATM   27  C18 UNL     1      10.631  -5.570   1.301  1.00  0.00    -0.053 A 
HETATM   28  C17 UNL     1       9.998  -6.471   0.436  1.00  0.00     0.044 A 
HETATM   29  C19 UNL     1      11.370  -4.382   0.779  1.00  0.00     0.049 C 
ENDBRANCH  21  22
ENDBRANCH  20  21
ENDBRANCH   1  20
TORSDOF 6
ENDMDL
MODEL 7
REMARK VINA RESULT:      -5.3      1.695      2.227
REMARK  6 active torsions:
REMARK  status: ('A' for Active; 'I' for Inactive)
REMARK    1  A    between atoms: C5_5  and  O1_6 
REMARK    2  A    between atoms: O1_6  and  C6_7 
REMARK    3  A    between atoms: C6_7  and  C7_8 
REMARK    4  A    between atoms: C9_10  and  C10_11 
REMARK       I    between atoms: C10_11  and  N1_13 
REMARK    5  A    between atoms: N1_13  and  C11_14 
REMARK    6  A    between atoms: C11_14  and  C12_15 
ROOT
HETATM    1  C7  UNL     1       8.129  -7.450   1.593  1.00  0.00     0.102 A 
HETATM    2  C8  UNL     1       8.288  -8.276   0.510  1.00  0.00     0.074 A 
HETATM    3  C9  UNL     1       7.432  -7.847  -0.478  1.00  0.00     0.125 A 
HETATM    4  N3  UNL     1       6.795  -6.785   0.047  1.00  0.00    -0.256 N 
ATOM      5  H3  UNL     1       6.086  -6.228  -0.431  1.00  0.00     0.195 HD
HETATM    6  O4  UNL     1       7.225  -6.577   1.262  1.00  0.00    -0.239 OA
ENDROOT
BRANCH   3   7
HETATM    7  C10 UNL     1       7.297  -8.453  -1.799  1.00  0.00     0.270 C 
HETATM    8  O2  UNL     1       6.735  -9.566  -1.965  1.00  0.00    -0.266 OA
HETATM    9  N1  UNL     1       7.807  -7.783  -2.938  1.00  0.00    -0.351 N 
HETATM   10  H9  UNL     1       8.279  -6.850  -2.756  1.00  0.00     0.163 HD
BRANCH   9  11
HETATM   11  C11 UNL     1       7.739  -8.264  -4.282  1.00  0.00     0.166 C 
BRANCH  11  12
HETATM   12  C12 UNL     1       8.413  -7.407  -5.258  1.00  0.00     0.015 A 
HETATM   13  C13 UNL     1       9.783  -7.457  -5.537  1.00  0.00     0.039 A 
HETATM   14  C14 UNL     1      10.767  -8.384  -4.917  1.00  0.00     0.071 C 
HETATM   15  N2  UNL     1      10.041  -6.516  -6.476  1.00  0.00    -0.265 N 
HETATM   16  O3  UNL     1       8.937  -5.905  -6.784  1.00  0.00    -0.242 OA
ATOM     17  H2  UNL     1      10.958  -6.318  -6.878  1.00  0.00     0.194 HD
HETATM   18  C15 UNL     1       7.938  -6.407  -6.077  1.00  0.00     0.082 A 
HETATM   19  C16 UNL     1       6.511  -5.987  -6.129  1.00  0.00     0.079 C 
ENDBRANCH  11  12
ENDBRANCH   9  11
ENDBRANCH   3   7
BRANCH   1  20
HETATM   20  C6  UNL     1       8.898  -7.595   2.888  1.00  0.00     0.242 C 
BRANCH  20  21
HETATM   21  O1  UNL     1      10.215  -7.229   2.689  1.00  0.00    -0.345 OA
BRANCH  21  22
HETATM   22  C5  UNL     1      10.836  -6.031   2.606  1.00  0.00     0.069 A 
HETATM   23  C4  UNL     1      10.944  -5.469   1.333  1.00  0.00     0.037 A 
HETATM   24  C3  UNL     1      11.544  -4.264   1.089  1.00  0.00     0.010 A 
HETATM   25  C2  UNL     1      12.076  -3.551   2.137  1.00  0.00    -0.056 A 
HETATM   26  C1  UNL     1      12.742  -2.228   1.905  1.00  0.00     0.049 C 
HETATM   27  C18 UNL     1      11.984  -4.078   3.405  1.00  0.00    -0.053 A 
HETATM   28  C17 UNL     1      11.370  -5.311   3.657  1.00  0.00     0.044 A 
HETATM   29  C19 UNL     1      12.581  -3.268   4.508  1.00  0.00     0.049 C 
ENDBRANCH  21  22
ENDBRANCH  20  21
ENDBRANCH   1  20
TORSDOF 6
ENDMDL
MODEL 8
REMARK VINA RESULT:      -5.2     11.186     15.271
REMARK  6 active torsions:
REMARK  status: ('A' for Active; 'I' for Inactive)
REMARK    1  A    between atoms: C5_5  and  O1_6 
REMARK    2  A    between atoms: O1_6  and  C6_7 
REMARK    3  A    between atoms: C6_7  and  C7_8 
REMARK    4  A    between atoms: C9_10  and  C10_11 
REMARK       I    between atoms: C10_11  and  N1_13 
REMARK    5  A    between atoms: N1_13  and  C11_14 
REMARK    6  A    between atoms: C11_14  and  C12_15 
ROOT
HETATM    1  C7  UNL     1       0.491   2.731  -8.053  1.00  0.00     0.102 A 
HETATM    2  C8  UNL     1      -0.460   2.126  -7.271  1.00  0.00     0.074 A 
HETATM    3  C9  UNL     1      -0.191   0.777  -7.248  1.00  0.00     0.125 A 
HETATM    4  N3  UNL     1       0.905   0.624  -8.013  1.00  0.00    -0.256 N 
ATOM      5  H3  UNL     1       1.369  -0.263  -8.205  1.00  0.00     0.195 HD
HETATM    6  O4  UNL     1       1.281   1.787  -8.471  1.00  0.00    -0.239 OA
ENDROOT
BRANCH   3   7
HETATM    7  C10 UNL     1      -0.965  -0.225  -6.520  1.00  0.00     0.270 C 
HETATM    8  O2  UNL     1      -1.170  -1.374  -6.989  1.00  0.00    -0.266 OA
HETATM    9  N1  UNL     1      -1.505   0.088  -5.249  1.00  0.00    -0.351 N 
HETATM   10  H9  UNL     1      -1.315   1.069  -4.891  1.00  0.00     0.163 HD
BRANCH   9  11
HETATM   11  C11 UNL     1      -2.277  -0.799  -4.436  1.00  0.00     0.166 C 
BRANCH  11  12
HETATM   12  C12 UNL     1      -1.776  -0.941  -3.068  1.00  0.00     0.015 A 
HETATM   13  C13 UNL     1      -2.269  -0.228  -1.970  1.00  0.00     0.039 A 
HETATM   14  C14 UNL     1      -3.377   0.764  -2.000  1.00  0.00     0.071 C 
HETATM   15  N2  UNL     1      -1.559  -0.613  -0.883  1.00  0.00    -0.265 N 
HETATM   16  O3  UNL     1      -0.680  -1.500  -1.239  1.00  0.00    -0.242 OA
ATOM     17  H2  UNL     1      -1.694  -0.262   0.065  1.00  0.00     0.194 HD
HETATM   18  C15 UNL     1      -0.776  -1.726  -2.540  1.00  0.00     0.082 A 
HETATM   19  C16 UNL     1       0.048  -2.669  -3.343  1.00  0.00     0.079 C 
ENDBRANCH  11  12
ENDBRANCH   9  11
ENDBRANCH   3   7
BRANCH   1  20
HETATM   20  C6  UNL     1       0.540   4.218  -8.326  1.00  0.00     0.242 C 
BRANCH  20  21
HETATM   21  O1  UNL     1       1.598   4.500  -9.169  1.00  0.00    -0.345 OA
BRANCH  21  22
HETATM   22  C5  UNL     1       2.521   5.488  -9.190  1.00  0.00     0.069 A 
HETATM   23  C4  UNL     1       3.537   5.375 -10.139  1.00  0.00     0.037 A 
HETATM   24  C3  UNL     1       4.542   6.293 -10.282  1.00  0.00     0.010 A 
HETATM   25  C2  UNL     1       4.571   7.393  -9.458  1.00  0.00    -0.056 A 
HETATM   26  C1  UNL     1       5.658   8.418  -9.586  1.00  0.00     0.049 C 
HETATM   27  C18 UNL     1       3.582   7.534  -8.512  1.00  0.00    -0.053 A 
HETATM   28  C17 UNL     1       2.554   6.595  -8.364  1.00  0.00     0.044 A 
HETATM   29  C19 UNL     1       3.662   8.743  -7.639  1.00  0.00     0.049 C 
ENDBRANCH  21  22
ENDBRANCH  20  21
ENDBRANCH   1  20
TORSDOF 6
ENDMDL
MODEL 9
REMARK VINA RESULT:      -5.2      9.284     13.116
REMARK  6 active torsions:
REMARK  status: ('A' for Active; 'I' for Inactive)
REMARK    1  A    between atoms: C5_5  and  O1_6 
REMARK    2  A    between atoms: O1_6  and  C6_7 
REMARK    3  A    between atoms: C6_7  and  C7_8 
REMARK    4  A    between atoms: C9_10  and  C10_11 
REMARK       I    between atoms: C10_11  and  N1_13 
REMARK    5  A    between atoms: N1_13  and  C11_14 
REMARK    6  A    between atoms: C11_14  and  C12_15 
ROOT
HETATM    1  C7  UNL     1       4.902  -7.728   7.595  1.00  0.00     0.102 A 
HETATM    2  C8  UNL     1       4.196  -7.634   8.768  1.00  0.00     0.074 A 
HETATM    3  C9  UNL     1       2.866  -7.489   8.450  1.00  0.00     0.125 A 
HETATM    4  N3  UNL     1       2.823  -7.502   7.106  1.00  0.00    -0.256 N 
ATOM      5  H3  UNL     1       1.976  -7.416   6.543  1.00  0.00     0.195 HD
HETATM    6  O4  UNL     1       4.031  -7.644   6.634  1.00  0.00    -0.239 OA
ENDROOT
BRANCH   3   7
HETATM    7  C10 UNL     1       1.777  -7.362   9.414  1.00  0.00     0.270 C 
HETATM    8  O2  UNL     1       1.350  -8.349  10.068  1.00  0.00    -0.266 OA
HETATM    9  N1  UNL     1       1.173  -6.100   9.634  1.00  0.00    -0.351 N 
HETATM   10  H9  UNL     1       1.557  -5.294   9.060  1.00  0.00     0.163 HD
BRANCH   9  11
HETATM   11  C11 UNL     1       0.104  -5.841  10.547  1.00  0.00     0.166 C 
BRANCH  11  12
HETATM   12  C12 UNL     1      -0.932  -4.954  10.016  1.00  0.00     0.015 A 
HETATM   13  C13 UNL     1      -1.042  -3.594  10.329  1.00  0.00     0.039 A 
HETATM   14  C14 UNL     1      -0.132  -2.829  11.223  1.00  0.00     0.071 C 
HETATM   15  N2  UNL     1      -2.118  -3.110   9.665  1.00  0.00    -0.265 N 
HETATM   16  O3  UNL     1      -2.663  -4.067   8.978  1.00  0.00    -0.242 OA
ATOM     17  H2  UNL     1      -2.448  -2.145   9.699  1.00  0.00     0.194 HD
HETATM   18  C15 UNL     1      -1.984  -5.189   9.160  1.00  0.00     0.082 A 
HETATM   19  C16 UNL     1      -2.278  -6.516   8.554  1.00  0.00     0.079 C 
ENDBRANCH  11  12
ENDBRANCH   9  11
ENDBRANCH   3   7
BRANCH   1  20
HETATM   20  C6  UNL     1       6.403  -7.897   7.522  1.00  0.00     0.242 C 
BRANCH  20  21
HETATM   21  O1  UNL     1       6.954  -6.845   6.817  1.00  0.00    -0.345 OA
BRANCH  21  22
HETATM   22  C5  UNL     1       7.810  -6.785   5.771  1.00  0.00     0.069 A 
HETATM   23  C4  UNL     1       9.112  -6.369   6.052  1.00  0.00     0.037 A 
HETATM   24  C3  UNL     1      10.089  -6.258   5.101  1.00  0.00     0.010 A 
HETATM   25  C2  UNL     1       9.797  -6.568   3.794  1.00  0.00    -0.056 A 
HETATM   26  C1  UNL     1      10.843  -6.457   2.726  1.00  0.00     0.049 C 
HETATM   27  C18 UNL     1       8.522  -6.983   3.486  1.00  0.00    -0.053 A 
HETATM   28  C17 UNL     1       7.520  -7.097   4.457  1.00  0.00     0.044 A 
HETATM   29  C19 UNL     1       8.253  -7.303   2.052  1.00  0.00     0.049 C 
ENDBRANCH  21  22
ENDBRANCH  20  21
ENDBRANCH   1  20
TORSDOF 6
ENDMDL
