MODEL 1
REMARK VINA RESULT:      -5.6      0.000      0.000
REMARK  4 active torsions:
REMARK  status: ('A' for Active; 'I' for Inactive)
REMARK    1  A    between atoms: N1_4  and  C4_5 
REMARK    2  A    between atoms: C4_5  and  C5_6 
REMARK    3  A    between atoms: C8_9  and  S1_10 
REMARK    4  A    between atoms: S1_10  and  N2_11 
ROOT
HETATM    1  C1  UNL     1      11.588  -4.312   2.533  1.00  0.00     0.045 C 
HETATM    2  C2  UNL     1      10.881  -5.555   2.054  1.00  0.00    -0.063 C 
HETATM    3  C3  UNL     1      10.480  -6.340   3.036  1.00  0.00     0.097 C 
HETATM    4  N1  UNL     1       9.788  -7.580   2.922  1.00  0.00    -0.319 N 
HETATM    5  C11 UNL     1       9.114  -8.095   1.771  1.00  0.00     0.260 C 
HETATM    6  O3  UNL     1       8.692  -9.273   1.799  1.00  0.00    -0.267 OA
HETATM    7  C12 UNL     1       8.860  -7.371   0.531  1.00  0.00     0.055 A 
HETATM    8  C13 UNL     1       7.756  -7.871  -0.150  1.00  0.00     0.020 A 
HETATM    9  C14 UNL     1       7.385  -7.290  -1.345  1.00  0.00     0.018 A 
HETATM   10  C15 UNL     1       8.141  -6.224  -1.814  1.00  0.00     0.088 A 
HETATM   11  N3  UNL     1       9.215  -5.767  -1.115  1.00  0.00    -0.368 N 
ATOM     12  H3  UNL     1       9.747  -4.982  -1.491  1.00  0.00     0.165 HD
HETATM   13  C16 UNL     1       9.608  -6.313   0.061  1.00  0.00     0.028 A 
HETATM   14  C17 UNL     1      10.792  -5.621   0.586  1.00  0.00     0.093 C 
ENDROOT
BRANCH   4  15
HETATM   15  C4  UNL     1       9.747  -8.437   4.101  1.00  0.00     0.170 C 
BRANCH  15  16
HETATM   16  C5  UNL     1       8.515  -8.296   4.893  1.00  0.00    -0.040 A 
HETATM   17  C6  UNL     1       8.079  -9.384   5.635  1.00  0.00     0.010 A 
HETATM   18  C7  UNL     1       6.931  -9.333   6.405  1.00  0.00     0.025 A 
HETATM   19  C8  UNL     1       6.201  -8.168   6.434  1.00  0.00     0.074 A 
HETATM   20  C9  UNL     1       6.608  -7.066   5.704  1.00  0.00     0.025 A 
HETATM   21  C10 UNL     1       7.750  -7.153   4.953  1.00  0.00     0.010 A 
BRANCH  19  22
HETATM   22  S1  UNL     1       4.728  -7.989   7.374  1.00  0.00     0.239 S 
HETATM   23  O1  UNL     1       3.667  -7.303   6.569  1.00  0.00    -0.206 OA
HETATM   24  O2  UNL     1       4.234  -9.379   7.687  1.00  0.00    -0.206 OA
BRANCH  22  25
HETATM   25  N2  UNL     1       5.032  -7.135   8.840  1.00  0.00    -0.225 NA
HETATM   26  H9  UNL     1       4.203  -6.546   9.120  1.00  0.00     0.136 HD
HETATM   27  H10 UNL     1       5.918  -6.582   8.792  1.00  0.00     0.136 HD
ENDBRANCH  22  25
ENDBRANCH  19  22
ENDBRANCH  15  16
ENDBRANCH   4  15
TORSDOF 4
ENDMDL
MODEL 2
REMARK VINA RESULT:      -5.4      1.505      2.902
REMARK  4 active torsions:
REMARK  status: ('A' for Active; 'I' for Inactive)
REMARK    1  A    between atoms: N1_4  and  C4_5 
REMARK    2  A    between atoms: C4_5  and  C5_6 
REMARK    3  A    between atoms: C8_9  and  S1_10 
REMARK    4  A    between atoms: S1_10  and  N2_11 
ROOT
HETATM    1  C1  UNL     1       8.341  -9.599   0.314  1.00  0.00     0.045 C 
HETATM    2  C2  UNL     1       8.826  -8.373   1.045  1.00  0.00    -0.063 C 
HETATM    3  C3  UNL     1       9.213  -8.621   2.282  1.00  0.00     0.097 C 
HETATM    4  N1  UNL     1       9.719  -7.687   3.231  1.00  0.00    -0.319 N 
HETATM    5  C11 UNL     1      10.202  -6.366   2.976  1.00  0.00     0.260 C 
HETATM    6  O3  UNL     1      10.465  -5.624   3.949  1.00  0.00    -0.267 OA
HETATM    7  C12 UNL     1      10.428  -5.774   1.663  1.00  0.00     0.055 A 
HETATM    8  C13 UNL     1      11.384  -4.765   1.700  1.00  0.00     0.020 A 
HETATM    9  C14 UNL     1      11.709  -4.106   0.532  1.00  0.00     0.018 A 
HETATM   10  C15 UNL     1      11.060  -4.487  -0.635  1.00  0.00     0.088 A 
HETATM   11  N3  UNL     1      10.130  -5.479  -0.625  1.00  0.00    -0.368 N 
ATOM     12  H3  UNL     1       9.673  -5.731  -1.502  1.00  0.00     0.165 HD
HETATM   13  C16 UNL     1       9.785  -6.147   0.502  1.00  0.00     0.028 A 
HETATM   14  C17 UNL     1       8.761  -7.160   0.213  1.00  0.00     0.093 C 
ENDROOT
BRANCH   4  15
HETATM   15  C4  UNL     1       9.762  -8.104   4.627  1.00  0.00     0.170 C 
BRANCH  15  16
HETATM   16  C5  UNL     1       8.442  -8.137   5.277  1.00  0.00    -0.040 A 
HETATM   17  C6  UNL     1       8.044  -9.307   5.908  1.00  0.00     0.010 A 
HETATM   18  C7  UNL     1       6.820  -9.419   6.541  1.00  0.00     0.025 A 
HETATM   19  C8  UNL     1       5.971  -8.337   6.543  1.00  0.00     0.074 A 
HETATM   20  C9  UNL     1       6.337  -7.156   5.922  1.00  0.00     0.025 A 
HETATM   21  C10 UNL     1       7.558  -7.081   5.305  1.00  0.00     0.010 A 
BRANCH  19  22
HETATM   22  S1  UNL     1       4.394  -8.364   7.314  1.00  0.00     0.239 S 
HETATM   23  O1  UNL     1       4.503  -7.971   8.756  1.00  0.00    -0.206 OA
HETATM   24  O2  UNL     1       3.548  -7.322   6.623  1.00  0.00    -0.206 OA
BRANCH  22  25
HETATM   25  N2  UNL     1       3.656  -9.913   7.156  1.00  0.00    -0.225 NA
HETATM   26  H9  UNL     1       3.734 -10.276   6.168  1.00  0.00     0.136 HD
HETATM   27  H10 UNL     1       2.671  -9.913   7.506  1.00  0.00     0.136 HD
ENDBRANCH  22  25
ENDBRANCH  19  22
ENDBRANCH  15  16
ENDBRANCH   4  15
TORSDOF 4
ENDMDL
MODEL 3
REMARK VINA RESULT:      -5.1     10.925     11.913
REMARK  4 active torsions:
REMARK  status: ('A' for Active; 'I' for Inactive)
REMARK    1  A    between atoms: N1_4  and  C4_5 
REMARK    2  A    between atoms: C4_5  and  C5_6 
REMARK    3  A    between atoms: C8_9  and  S1_10 
REMARK    4  A    between atoms: S1_10  and  N2_11 
ROOT
HETATM    1  C1  UNL     1      -3.248  -1.156  -0.613  1.00  0.00     0.045 C 
HETATM    2  C2  UNL     1      -2.660  -2.456  -1.097  1.00  0.00    -0.063 C 
HETATM    3  C3  UNL     1      -3.539  -3.439  -1.156  1.00  0.00     0.097 C 
HETATM    4  N1  UNL     1      -3.306  -4.782  -1.569  1.00  0.00    -0.319 N 
HETATM    5  C11 UNL     1      -2.177  -5.286  -2.287  1.00  0.00     0.260 C 
HETATM    6  O3  UNL     1      -2.060  -6.523  -2.432  1.00  0.00    -0.267 OA
HETATM    7  C12 UNL     1      -1.116  -4.486  -2.887  1.00  0.00     0.055 A 
HETATM    8  C13 UNL     1      -0.502  -5.141  -3.948  1.00  0.00     0.020 A 
HETATM    9  C14 UNL     1       0.525  -4.512  -4.621  1.00  0.00     0.018 A 
HETATM   10  C15 UNL     1       0.900  -3.243  -4.200  1.00  0.00     0.088 A 
HETATM   11  N3  UNL     1       0.272  -2.639  -3.156  1.00  0.00    -0.368 N 
ATOM     12  H3  UNL     1       0.575  -1.706  -2.875  1.00  0.00     0.165 HD
HETATM   13  C16 UNL     1      -0.739  -3.226  -2.472  1.00  0.00     0.028 A 
HETATM   14  C17 UNL     1      -1.223  -2.346  -1.401  1.00  0.00     0.093 C 
ENDROOT
BRANCH   4  15
HETATM   15  C4  UNL     1      -4.322  -5.773  -1.235  1.00  0.00     0.170 C 
BRANCH  15  16
HETATM   16  C5  UNL     1      -4.357  -6.129   0.192  1.00  0.00    -0.040 A 
HETATM   17  C6  UNL     1      -3.956  -7.403   0.565  1.00  0.00     0.010 A 
HETATM   18  C7  UNL     1      -3.959  -7.815   1.886  1.00  0.00     0.025 A 
HETATM   19  C8  UNL     1      -4.375  -6.934   2.856  1.00  0.00     0.074 A 
HETATM   20  C9  UNL     1      -4.782  -5.657   2.516  1.00  0.00     0.025 A 
HETATM   21  C10 UNL     1      -4.764  -5.283   1.199  1.00  0.00     0.010 A 
BRANCH  19  22
HETATM   22  S1  UNL     1      -4.421  -7.347   4.562  1.00  0.00     0.239 S 
HETATM   23  O1  UNL     1      -5.745  -7.947   4.925  1.00  0.00    -0.206 OA
HETATM   24  O2  UNL     1      -3.368  -8.403   4.788  1.00  0.00    -0.206 OA
BRANCH  22  25
HETATM   25  N2  UNL     1      -4.085  -5.969   5.540  1.00  0.00    -0.225 NA
HETATM   26  H9  UNL     1      -4.269  -5.073   5.016  1.00  0.00     0.136 HD
HETATM   27  H10 UNL     1      -3.124  -6.005   5.947  1.00  0.00     0.136 HD
ENDBRANCH  22  25
ENDBRANCH  19  22
ENDBRANCH  15  16
ENDBRANCH   4  15
TORSDOF 4
ENDMDL
MODEL 4
REMARK VINA RESULT:      -5.0      2.826      3.041
REMARK  4 active torsions:
REMARK  status: ('A' for Active; 'I' for Inactive)
REMARK    1  A    between atoms: N1_4  and  C4_5 
REMARK    2  A    between atoms: C4_5  and  C5_6 
REMARK    3  A    between atoms: C8_9  and  S1_10 
REMARK    4  A    between atoms: S1_10  and  N2_11 
ROOT
HETATM    1  C1  UNL     1      12.015  -3.785   2.165  1.00  0.00     0.045 C 
HETATM    2  C2  UNL     1      11.234  -5.055   1.947  1.00  0.00    -0.063 C 
HETATM    3  C3  UNL     1      10.901  -5.665   3.069  1.00  0.00     0.097 C 
HETATM    4  N1  UNL     1      10.167  -6.877   3.208  1.00  0.00    -0.319 N 
HETATM    5  C11 UNL     1       9.378  -7.533   2.213  1.00  0.00     0.260 C 
HETATM    6  O3  UNL     1       8.927  -8.674   2.459  1.00  0.00    -0.267 OA
HETATM    7  C12 UNL     1       9.033  -6.997   0.902  1.00  0.00     0.055 A 
HETATM    8  C13 UNL     1       7.858  -7.548   0.403  1.00  0.00     0.020 A 
HETATM    9  C14 UNL     1       7.398  -7.140  -0.832  1.00  0.00     0.018 A 
HETATM   10  C15 UNL     1       8.138  -6.191  -1.524  1.00  0.00     0.088 A 
HETATM   11  N3  UNL     1       9.283  -5.678  -0.998  1.00  0.00    -0.368 N 
ATOM     12  H3  UNL     1       9.800  -4.982  -1.536  1.00  0.00     0.165 HD
HETATM   13  C16 UNL     1       9.765  -6.055   0.211  1.00  0.00     0.028 A 
HETATM   14  C17 UNL     1      11.010  -5.340   0.519  1.00  0.00     0.093 C 
ENDROOT
BRANCH   4  15
HETATM   15  C4  UNL     1      10.208  -7.542   4.505  1.00  0.00     0.170 C 
BRANCH  15  16
HETATM   16  C5  UNL     1       9.715  -6.711   5.614  1.00  0.00    -0.040 A 
HETATM   17  C6  UNL     1      10.630  -5.963   6.338  1.00  0.00     0.010 A 
HETATM   18  C7  UNL     1      10.247  -5.156   7.394  1.00  0.00     0.025 A 
HETATM   19  C8  UNL     1       8.916  -5.097   7.736  1.00  0.00     0.074 A 
HETATM   20  C9  UNL     1       7.978  -5.832   7.035  1.00  0.00     0.025 A 
HETATM   21  C10 UNL     1       8.394  -6.619   5.994  1.00  0.00     0.010 A 
BRANCH  19  22
HETATM   22  S1  UNL     1       8.314  -4.109   9.058  1.00  0.00     0.239 S 
HETATM   23  O1  UNL     1       7.592  -2.907   8.533  1.00  0.00    -0.206 OA
HETATM   24  O2  UNL     1       7.312  -4.947   9.812  1.00  0.00    -0.206 OA
BRANCH  22  25
HETATM   25  N2  UNL     1       9.595  -3.642  10.112  1.00  0.00    -0.225 NA
HETATM   26  H9  UNL     1       9.363  -3.861  11.117  1.00  0.00     0.136 HD
HETATM   27  H10 UNL     1       9.870  -2.644   9.972  1.00  0.00     0.136 HD
ENDBRANCH  22  25
ENDBRANCH  19  22
ENDBRANCH  15  16
ENDBRANCH   4  15
TORSDOF 4
ENDMDL
MODEL 5
REMARK VINA RESULT:      -4.9     10.781     11.895
REMARK  4 active torsions:
REMARK  status: ('A' for Active; 'I' for Inactive)
REMARK    1  A    between atoms: N1_4  and  C4_5 
REMARK    2  A    between atoms: C4_5  and  C5_6 
REMARK    3  A    between atoms: C8_9  and  S1_10 
REMARK    4  A    between atoms: S1_10  and  N2_11 
ROOT
HETATM    1  C1  UNL     1      -0.457  -8.729  -2.945  1.00  0.00     0.045 C 
HETATM    2  C2  UNL     1      -1.221  -7.433  -2.846  1.00  0.00    -0.063 C 
HETATM    3  C3  UNL     1      -2.269  -7.503  -2.047  1.00  0.00     0.097 C 
HETATM    4  N1  UNL     1      -3.191  -6.462  -1.741  1.00  0.00    -0.319 N 
HETATM    5  C11 UNL     1      -3.027  -5.060  -1.972  1.00  0.00     0.260 C 
HETATM    6  O3  UNL     1      -4.004  -4.302  -1.784  1.00  0.00    -0.267 OA
HETATM    7  C12 UNL     1      -1.804  -4.403  -2.417  1.00  0.00     0.055 A 
HETATM    8  C13 UNL     1      -1.753  -3.070  -2.025  1.00  0.00     0.020 A 
HETATM    9  C14 UNL     1      -0.655  -2.311  -2.371  1.00  0.00     0.018 A 
HETATM   10  C15 UNL     1       0.356  -2.920  -3.103  1.00  0.00     0.088 A 
HETATM   11  N3  UNL     1       0.264  -4.228  -3.466  1.00  0.00    -0.368 N 
ATOM     12  H3  UNL     1       1.027  -4.641  -4.004  1.00  0.00     0.165 HD
HETATM   13  C16 UNL     1      -0.798  -5.003  -3.144  1.00  0.00     0.028 A 
HETATM   14  C17 UNL     1      -0.625  -6.365  -3.666  1.00  0.00     0.093 C 
ENDROOT
BRANCH   4  15
HETATM   15  C4  UNL     1      -4.453  -6.844  -1.117  1.00  0.00     0.170 C 
BRANCH  15  16
HETATM   16  C5  UNL     1      -4.406  -6.862   0.353  1.00  0.00    -0.040 A 
HETATM   17  C6  UNL     1      -4.037  -8.039   0.988  1.00  0.00     0.010 A 
HETATM   18  C7  UNL     1      -3.968  -8.138   2.366  1.00  0.00     0.025 A 
HETATM   19  C8  UNL     1      -4.277  -7.036   3.128  1.00  0.00     0.074 A 
HETATM   20  C9  UNL     1      -4.650  -5.848   2.525  1.00  0.00     0.025 A 
HETATM   21  C10 UNL     1      -4.706  -5.786   1.158  1.00  0.00     0.010 A 
BRANCH  19  22
HETATM   22  S1  UNL     1      -4.226  -7.046   4.884  1.00  0.00     0.239 S 
HETATM   23  O1  UNL     1      -3.153  -7.968   5.376  1.00  0.00    -0.206 OA
HETATM   24  O2  UNL     1      -3.859  -5.649   5.321  1.00  0.00    -0.206 OA
BRANCH  22  25
HETATM   25  N2  UNL     1      -5.757  -7.480   5.543  1.00  0.00    -0.225 NA
HETATM   26  H9  UNL     1      -5.815  -7.239   6.569  1.00  0.00     0.136 HD
HETATM   27  H10 UNL     1      -5.994  -8.480   5.353  1.00  0.00     0.136 HD
ENDBRANCH  22  25
ENDBRANCH  19  22
ENDBRANCH  15  16
ENDBRANCH   4  15
TORSDOF 4
ENDMDL
MODEL 6
REMARK VINA RESULT:      -4.9      2.917      7.452
REMARK  4 active torsions:
REMARK  status: ('A' for Active; 'I' for Inactive)
REMARK    1  A    between atoms: N1_4  and  C4_5 
REMARK    2  A    between atoms: C4_5  and  C5_6 
REMARK    3  A    between atoms: C8_9  and  S1_10 
REMARK    4  A    between atoms: S1_10  and  N2_11 
ROOT
HETATM    1  C1  UNL     1       9.450 -11.562   5.570  1.00  0.00     0.045 C 
HETATM    2  C2  UNL     1       8.689 -10.310   5.925  1.00  0.00    -0.063 C 
HETATM    3  C3  UNL     1       9.029  -9.266   5.194  1.00  0.00     0.097 C 
HETATM    4  N1  UNL     1       8.502  -7.945   5.278  1.00  0.00    -0.319 N 
HETATM    5  C11 UNL     1       7.304  -7.529   5.937  1.00  0.00     0.260 C 
HETATM    6  O3  UNL     1       7.072  -6.304   6.046  1.00  0.00    -0.267 OA
HETATM    7  C12 UNL     1       6.293  -8.408   6.515  1.00  0.00     0.055 A 
HETATM    8  C13 UNL     1       5.042  -7.804   6.567  1.00  0.00     0.020 A 
HETATM    9  C14 UNL     1       3.978  -8.510   7.089  1.00  0.00     0.018 A 
HETATM   10  C15 UNL     1       4.211  -9.802   7.541  1.00  0.00     0.088 A 
HETATM   11  N3  UNL     1       5.453 -10.353   7.471  1.00  0.00    -0.368 N 
ATOM     12  H3  UNL     1       5.585 -11.306   7.814  1.00  0.00     0.165 HD
HETATM   13  C16 UNL     1       6.520  -9.690   6.966  1.00  0.00     0.028 A 
HETATM   14  C17 UNL     1       7.725 -10.529   7.017  1.00  0.00     0.093 C 
ENDROOT
BRANCH   4  15
HETATM   15  C4  UNL     1       9.251  -6.880   4.622  1.00  0.00     0.170 C 
BRANCH  15  16
HETATM   16  C5  UNL     1       9.144  -6.897   3.155  1.00  0.00    -0.040 A 
HETATM   17  C6  UNL     1      10.266  -6.573   2.406  1.00  0.00     0.010 A 
HETATM   18  C7  UNL     1      10.248  -6.566   1.023  1.00  0.00     0.025 A 
HETATM   19  C8  UNL     1       9.081  -6.889   0.372  1.00  0.00     0.074 A 
HETATM   20  C9  UNL     1       7.944  -7.215   1.089  1.00  0.00     0.025 A 
HETATM   21  C10 UNL     1       7.999  -7.213   2.458  1.00  0.00     0.010 A 
BRANCH  19  22
HETATM   22  S1  UNL     1       8.940  -6.912  -1.379  1.00  0.00     0.239 S 
HETATM   23  O1  UNL     1      10.285  -7.094  -2.014  1.00  0.00    -0.206 OA
HETATM   24  O2  UNL     1       8.102  -8.114  -1.737  1.00  0.00    -0.206 OA
BRANCH  22  25
HETATM   25  N2  UNL     1       8.180  -5.477  -1.956  1.00  0.00    -0.225 NA
HETATM   26  H9  UNL     1       7.718  -5.637  -2.891  1.00  0.00     0.136 HD
HETATM   27  H10 UNL     1       8.837  -4.665  -1.967  1.00  0.00     0.136 HD
ENDBRANCH  22  25
ENDBRANCH  19  22
ENDBRANCH  15  16
ENDBRANCH   4  15
TORSDOF 4
ENDMDL
MODEL 7
REMARK VINA RESULT:      -4.8      3.099      4.811
REMARK  4 active torsions:
REMARK  status: ('A' for Active; 'I' for Inactive)
REMARK    1  A    between atoms: N1_4  and  C4_5 
REMARK    2  A    between atoms: C4_5  and  C5_6 
REMARK    3  A    between atoms: C8_9  and  S1_10 
REMARK    4  A    between atoms: S1_10  and  N2_11 
ROOT
HETATM    1  C1  UNL     1       9.437 -11.134  -0.988  1.00  0.00     0.045 C 
HETATM    2  C2  UNL     1       8.839  -9.809  -1.387  1.00  0.00    -0.063 C 
HETATM    3  C3  UNL     1       9.498  -8.771  -0.906  1.00  0.00     0.097 C 
HETATM    4  N1  UNL     1       9.194  -7.393  -1.096  1.00  0.00    -0.319 N 
HETATM    5  C11 UNL     1       8.320  -6.824  -2.073  1.00  0.00     0.260 C 
HETATM    6  O3  UNL     1       8.048  -5.605  -1.998  1.00  0.00    -0.267 OA
HETATM    7  C12 UNL     1       7.693  -7.535  -3.181  1.00  0.00     0.055 A 
HETATM    8  C13 UNL     1       7.387  -6.689  -4.241  1.00  0.00     0.020 A 
HETATM    9  C14 UNL     1       6.788  -7.214  -5.367  1.00  0.00     0.018 A 
HETATM   10  C15 UNL     1       6.516  -8.575  -5.387  1.00  0.00     0.088 A 
HETATM   11  N3  UNL     1       6.833  -9.367  -4.327  1.00  0.00    -0.368 N 
ATOM     12  H3  UNL     1       6.618 -10.363  -4.378  1.00  0.00     0.165 HD
HETATM   13  C16 UNL     1       7.421  -8.886  -3.205  1.00  0.00     0.028 A 
HETATM   14  C17 UNL     1       7.643  -9.963  -2.232  1.00  0.00     0.093 C 
ENDROOT
BRANCH   4  15
HETATM   15  C4  UNL     1       9.839  -6.435  -0.207  1.00  0.00     0.170 C 
BRANCH  15  16
HETATM   16  C5  UNL     1       9.477  -6.602   1.209  1.00  0.00    -0.040 A 
HETATM   17  C6  UNL     1       8.191  -7.020   1.518  1.00  0.00     0.010 A 
HETATM   18  C7  UNL     1       7.772  -7.202   2.824  1.00  0.00     0.025 A 
HETATM   19  C8  UNL     1       8.659  -6.958   3.846  1.00  0.00     0.074 A 
HETATM   20  C9  UNL     1       9.948  -6.539   3.572  1.00  0.00     0.025 A 
HETATM   21  C10 UNL     1      10.328  -6.371   2.267  1.00  0.00     0.010 A 
BRANCH  19  22
HETATM   22  S1  UNL     1       8.238  -7.154   5.540  1.00  0.00     0.239 S 
HETATM   23  O1  UNL     1       8.588  -8.531   6.016  1.00  0.00    -0.206 OA
HETATM   24  O2  UNL     1       9.081  -6.176   6.319  1.00  0.00    -0.206 OA
BRANCH  22  25
HETATM   25  N2  UNL     1       6.567  -6.822   5.803  1.00  0.00    -0.225 NA
HETATM   26  H9  UNL     1       5.960  -7.348   5.119  1.00  0.00     0.136 HD
HETATM   27  H10 UNL     1       6.370  -5.796   5.807  1.00  0.00     0.136 HD
ENDBRANCH  22  25
ENDBRANCH  19  22
ENDBRANCH  15  16
ENDBRANCH   4  15
TORSDOF 4
ENDMDL
MODEL 8
REMARK VINA RESULT:      -4.7     11.150     14.055
REMARK  4 active torsions:
REMARK  status: ('A' for Active; 'I' for Inactive)
REMARK    1  A    between atoms: N1_4  and  C4_5 
REMARK    2  A    between atoms: C4_5  and  C5_6 
REMARK    3  A    between atoms: C8_9  and  S1_10 
REMARK    4  A    between atoms: S1_10  and  N2_11 
ROOT
HETATM    1  C1  UNL     1      -3.707  -6.753   4.507  1.00  0.00     0.045 C 
HETATM    2  C2  UNL     1      -4.443  -7.552   5.551  1.00  0.00    -0.063 C 
HETATM    3  C3  UNL     1      -3.791  -7.644   6.695  1.00  0.00     0.097 C 
HETATM    4  N1  UNL     1      -4.209  -8.326   7.874  1.00  0.00    -0.319 N 
HETATM    5  C11 UNL     1      -5.524  -8.791   8.188  1.00  0.00     0.260 C 
HETATM    6  O3  UNL     1      -5.681  -9.509   9.200  1.00  0.00    -0.267 OA
HETATM    7  C12 UNL     1      -6.737  -8.508   7.430  1.00  0.00     0.055 A 
HETATM    8  C13 UNL     1      -7.879  -8.586   8.219  1.00  0.00     0.020 A 
HETATM    9  C14 UNL     1      -9.109  -8.344   7.645  1.00  0.00     0.018 A 
HETATM   10  C15 UNL     1      -9.148  -8.032   6.293  1.00  0.00     0.088 A 
HETATM   11  N3  UNL     1      -8.006  -7.967   5.557  1.00  0.00    -0.368 N 
ATOM     12  H3  UNL     1      -8.074  -7.735   4.566  1.00  0.00     0.165 HD
HETATM   13  C16 UNL     1      -6.781  -8.199   6.087  1.00  0.00     0.028 A 
HETATM   14  C17 UNL     1      -5.736  -8.059   5.064  1.00  0.00     0.093 C 
ENDROOT
BRANCH   4  15
HETATM   15  C4  UNL     1      -3.199  -8.587   8.892  1.00  0.00     0.170 C 
BRANCH  15  16
HETATM   16  C5  UNL     1      -2.429  -7.396   9.284  1.00  0.00    -0.040 A 
HETATM   17  C6  UNL     1      -1.074  -7.358   8.991  1.00  0.00     0.010 A 
HETATM   18  C7  UNL     1      -0.281  -6.275   9.326  1.00  0.00     0.025 A 
HETATM   19  C8  UNL     1      -0.856  -5.205   9.970  1.00  0.00     0.074 A 
HETATM   20  C9  UNL     1      -2.204  -5.212  10.278  1.00  0.00     0.025 A 
HETATM   21  C10 UNL     1      -2.959  -6.301   9.930  1.00  0.00     0.010 A 
BRANCH  19  22
HETATM   22  S1  UNL     1       0.052  -3.778  10.443  1.00  0.00     0.239 S 
HETATM   23  O1  UNL     1      -0.870  -2.625  10.697  1.00  0.00    -0.206 OA
HETATM   24  O2  UNL     1       0.738  -4.105  11.747  1.00  0.00    -0.206 OA
BRANCH  22  25
HETATM   25  N2  UNL     1       1.228  -3.371   9.251  1.00  0.00    -0.225 NA
HETATM   26  H9  UNL     1       0.845  -2.674   8.558  1.00  0.00     0.136 HD
HETATM   27  H10 UNL     1       1.624  -4.220   8.789  1.00  0.00     0.136 HD
ENDBRANCH  22  25
ENDBRANCH  19  22
ENDBRANCH  15  16
ENDBRANCH   4  15
TORSDOF 4
ENDMDL
MODEL 9
REMARK VINA RESULT:      -4.7     13.074     14.621
REMARK  4 active torsions:
REMARK  status: ('A' for Active; 'I' for Inactive)
REMARK    1  A    between atoms: N1_4  and  C4_5 
REMARK    2  A    between atoms: C4_5  and  C5_6 
REMARK    3  A    between atoms: C8_9  and  S1_10 
REMARK    4  A    between atoms: S1_10  and  N2_11 
ROOT
HETATM    1  C1  UNL     1      -4.267  -4.657   0.641  1.00  0.00     0.045 C 
HETATM    2  C2  UNL     1      -3.484  -3.909  -0.407  1.00  0.00    -0.063 C 
HETATM    3  C3  UNL     1      -3.318  -2.631  -0.124  1.00  0.00     0.097 C 
HETATM    4  N1  UNL     1      -2.630  -1.657  -0.902  1.00  0.00    -0.319 N 
HETATM    5  C11 UNL     1      -1.722  -1.891  -1.982  1.00  0.00     0.260 C 
HETATM    6  O3  UNL     1      -1.328  -0.915  -2.658  1.00  0.00    -0.267 OA
HETATM    7  C12 UNL     1      -1.192  -3.187  -2.390  1.00  0.00     0.055 A 
HETATM    8  C13 UNL     1       0.031  -3.071  -3.041  1.00  0.00     0.020 A 
HETATM    9  C14 UNL     1       0.662  -4.212  -3.490  1.00  0.00     0.018 A 
HETATM   10  C15 UNL     1       0.039  -5.433  -3.268  1.00  0.00     0.088 A 
HETATM   11  N3  UNL     1      -1.159  -5.500  -2.627  1.00  0.00    -0.368 N 
ATOM     12  H3  UNL     1      -1.586  -6.415  -2.482  1.00  0.00     0.165 HD
HETATM   13  C16 UNL     1      -1.807  -4.401  -2.173  1.00  0.00     0.028 A 
HETATM   14  C17 UNL     1      -3.072  -4.774  -1.525  1.00  0.00     0.093 C 
ENDROOT
BRANCH   4  15
HETATM   15  C4  UNL     1      -2.858  -0.254  -0.577  1.00  0.00     0.170 C 
BRANCH  15  16
HETATM   16  C5  UNL     1      -4.251   0.051  -0.214  1.00  0.00    -0.040 A 
HETATM   17  C6  UNL     1      -4.489   0.770   0.947  1.00  0.00     0.010 A 
HETATM   18  C7  UNL     1      -5.769   1.098   1.358  1.00  0.00     0.025 A 
HETATM   19  C8  UNL     1      -6.836   0.696   0.590  1.00  0.00     0.074 A 
HETATM   20  C9  UNL     1      -6.633  -0.023  -0.573  1.00  0.00     0.025 A 
HETATM   21  C10 UNL     1      -5.352  -0.329  -0.950  1.00  0.00     0.010 A 
BRANCH  19  22
HETATM   22  S1  UNL     1      -8.503   1.054   1.013  1.00  0.00     0.239 S 
HETATM   23  O1  UNL     1      -9.022   2.198   0.198  1.00  0.00    -0.206 OA
HETATM   24  O2  UNL     1      -9.319  -0.165   0.656  1.00  0.00    -0.206 OA
BRANCH  22  25
HETATM   25  N2  UNL     1      -8.655   1.384   2.698  1.00  0.00    -0.225 NA
HETATM   26  H9  UNL     1      -9.665   1.363   3.003  1.00  0.00     0.136 HD
HETATM   27  H10 UNL     1      -8.174   2.271   2.966  1.00  0.00     0.136 HD
ENDBRANCH  22  25
ENDBRANCH  19  22
ENDBRANCH  15  16
ENDBRANCH   4  15
TORSDOF 4
ENDMDL
