MODEL 1
REMARK VINA RESULT:      -6.0      0.000      0.000
REMARK  5 active torsions:
REMARK  status: ('A' for Active; 'I' for Inactive)
REMARK    1  A    between atoms: C1_2  and  C2_3 
REMARK       I    between atoms: C1_2  and  N1_11 
REMARK    2  A    between atoms: C2_3  and  C3_4 
REMARK    3  A    between atoms: C3_4  and  C4_5 
REMARK    4  A    between atoms: N1_11  and  N2_12 
REMARK       I    between atoms: N2_12  and  C10_13 
REMARK    5  A    between atoms: C10_13  and  C11_15 
REMARK       I    between atoms: N3_18  and  C14_19 
ROOT
HETATM    1  N2  UNL     1       7.846  -5.909  -2.725  1.00  0.00    -0.267 N 
HETATM    2  C10 UNL     1       7.998  -6.782  -3.835  1.00  0.00     0.240 C 
HETATM    3  O2  UNL     1       8.828  -7.739  -3.676  1.00  0.00    -0.271 OA
HETATM    4  H11 UNL     1       7.182  -5.109  -2.794  1.00  0.00     0.190 HD
ENDROOT
BRANCH   2   5
HETATM    5  C11 UNL     1       7.259  -6.612  -5.088  1.00  0.00     0.082 C 
HETATM    6  C12 UNL     1       8.133  -6.558  -6.317  1.00  0.00     0.034 C 
HETATM    7  C13 UNL     1       7.342  -6.149  -7.506  1.00  0.00     0.142 C 
HETATM    8  N3  UNL     1       5.956  -6.537  -7.470  1.00  0.00    -0.218 N 
HETATM    9  C14 UNL     1       5.200  -6.304  -8.678  1.00  0.00     0.679 A 
HETATM   10  C18 UNL     1       5.285  -7.123  -6.352  1.00  0.00     0.142 C 
HETATM   11  N4  UNL     1       5.824  -5.755  -9.730  1.00  0.00    -0.202 N 
HETATM   12  N5  UNL     1       3.903  -6.626  -8.758  1.00  0.00    -0.202 N 
HETATM   13  C15 UNL     1       5.135  -5.523 -10.886  1.00  0.00     0.107 A 
ATOM     14  H4  UNL     1       6.813  -5.511  -9.668  1.00  0.00     0.183 HD
HETATM   15  C16 UNL     1       3.781  -5.855 -10.981  1.00  0.00     0.035 A 
HETATM   16  C17 UNL     1       3.209  -6.409  -9.875  1.00  0.00     0.107 A 
ATOM     17  H5  UNL     1       3.439  -7.044  -7.951  1.00  0.00     0.183 HD
HETATM   18  C19 UNL     1       6.267  -7.734  -5.372  1.00  0.00     0.034 C 
ENDBRANCH   2   5
BRANCH   1  19
HETATM   19  N1  UNL     1       8.615  -6.188  -1.590  1.00  0.00    -0.268 N 
HETATM   20  C1  UNL     1       8.085  -6.809  -0.423  1.00  0.00     0.236 C 
HETATM   21  O1  UNL     1       6.870  -7.157  -0.325  1.00  0.00    -0.272 OA
HETATM   22  H10 UNL     1       9.638  -5.906  -1.643  1.00  0.00     0.190 HD
BRANCH  20  23
HETATM   23  C2  UNL     1       9.026  -7.039   0.702  1.00  0.00     0.109 C 
BRANCH  23  24
HETATM   24  C3  UNL     1      10.253  -6.186   0.619  1.00  0.00     0.048 C 
BRANCH  24  25
HETATM   25  C4  UNL     1      10.615  -5.764   2.018  1.00  0.00    -0.058 A 
HETATM   26  C5  UNL     1      11.455  -4.689   2.221  1.00  0.00     0.007 A 
HETATM   27  C6  UNL     1      11.803  -4.283   3.508  1.00  0.00     0.001 A 
HETATM   28  C7  UNL     1      11.289  -4.978   4.573  1.00  0.00     0.000 A 
HETATM   29  C8  UNL     1      10.444  -6.056   4.370  1.00  0.00     0.001 A 
HETATM   30  C9  UNL     1      10.095  -6.467   3.093  1.00  0.00     0.007 A 
ENDBRANCH  24  25
ENDBRANCH  23  24
ENDBRANCH  20  23
ENDBRANCH   1  19
TORSDOF 5
ENDMDL
MODEL 2
REMARK VINA RESULT:      -5.7      1.050      1.912
REMARK  5 active torsions:
REMARK  status: ('A' for Active; 'I' for Inactive)
REMARK    1  A    between atoms: C1_2  and  C2_3 
REMARK       I    between atoms: C1_2  and  N1_11 
REMARK    2  A    between atoms: C2_3  and  C3_4 
REMARK    3  A    between atoms: C3_4  and  C4_5 
REMARK    4  A    between atoms: N1_11  and  N2_12 
REMARK       I    between atoms: N2_12  and  C10_13 
REMARK    5  A    between atoms: C10_13  and  C11_15 
REMARK       I    between atoms: N3_18  and  C14_19 
ROOT
HETATM    1  N2  UNL     1       7.870  -6.475  -3.332  1.00  0.00    -0.267 N 
HETATM    2  C10 UNL     1       8.090  -7.126  -4.574  1.00  0.00     0.240 C 
HETATM    3  O2  UNL     1       9.214  -7.722  -4.694  1.00  0.00    -0.271 OA
HETATM    4  H11 UNL     1       6.970  -5.971  -3.175  1.00  0.00     0.190 HD
ENDROOT
BRANCH   2   5
HETATM    5  C11 UNL     1       7.107  -7.126  -5.660  1.00  0.00     0.082 C 
HETATM    6  C12 UNL     1       5.969  -8.097  -5.461  1.00  0.00     0.034 C 
HETATM    7  C13 UNL     1       5.154  -8.212  -6.698  1.00  0.00     0.142 C 
HETATM    8  N3  UNL     1       5.120  -7.022  -7.508  1.00  0.00    -0.218 N 
HETATM    9  C14 UNL     1       4.207  -7.043  -8.627  1.00  0.00     0.679 A 
HETATM   10  C18 UNL     1       5.905  -5.847  -7.294  1.00  0.00     0.142 C 
HETATM   11  N4  UNL     1       3.467  -8.142  -8.832  1.00  0.00    -0.202 N 
HETATM   12  N5  UNL     1       4.092  -5.991  -9.448  1.00  0.00    -0.202 N 
HETATM   13  C15 UNL     1       2.595  -8.190  -9.882  1.00  0.00     0.107 A 
ATOM     14  H4  UNL     1       3.555  -8.941  -8.205  1.00  0.00     0.183 HD
HETATM   15  C16 UNL     1       2.467  -7.100 -10.745  1.00  0.00     0.035 A 
HETATM   16  C17 UNL     1       3.248  -6.015 -10.479  1.00  0.00     0.107 A 
ATOM     17  H5  UNL     1       4.660  -5.160  -9.282  1.00  0.00     0.183 HD
HETATM   18  C19 UNL     1       6.429  -5.778  -5.874  1.00  0.00     0.034 C 
ENDBRANCH   2   5
BRANCH   1  19
HETATM   19  N1  UNL     1       8.895  -6.554  -2.383  1.00  0.00    -0.268 N 
HETATM   20  C1  UNL     1       8.655  -6.671  -0.985  1.00  0.00     0.236 C 
HETATM   21  O1  UNL     1       7.488  -6.711  -0.492  1.00  0.00    -0.272 OA
HETATM   22  H10 UNL     1       9.885  -6.522  -2.769  1.00  0.00     0.190 HD
BRANCH  20  23
HETATM   23  C2  UNL     1       9.847  -6.744  -0.103  1.00  0.00     0.109 C 
BRANCH  23  24
HETATM   24  C3  UNL     1       9.504  -6.657   1.350  1.00  0.00     0.048 C 
BRANCH  24  25
HETATM   25  C4  UNL     1      10.454  -5.681   1.990  1.00  0.00    -0.058 A 
HETATM   26  C5  UNL     1      10.644  -5.696   3.357  1.00  0.00     0.007 A 
HETATM   27  C6  UNL     1      11.519  -4.800   3.969  1.00  0.00     0.001 A 
HETATM   28  C7  UNL     1      12.190  -3.900   3.180  1.00  0.00     0.000 A 
HETATM   29  C8  UNL     1      12.000  -3.886   1.809  1.00  0.00     0.001 A 
HETATM   30  C9  UNL     1      11.131  -4.773   1.192  1.00  0.00     0.007 A 
ENDBRANCH  24  25
ENDBRANCH  23  24
ENDBRANCH  20  23
ENDBRANCH   1  19
TORSDOF 5
ENDMDL
MODEL 3
REMARK VINA RESULT:      -5.3     10.838     13.802
REMARK  5 active torsions:
REMARK  status: ('A' for Active; 'I' for Inactive)
REMARK    1  A    between atoms: C1_2  and  C2_3 
REMARK       I    between atoms: C1_2  and  N1_11 
REMARK    2  A    between atoms: C2_3  and  C3_4 
REMARK    3  A    between atoms: C3_4  and  C4_5 
REMARK    4  A    between atoms: N1_11  and  N2_12 
REMARK       I    between atoms: N2_12  and  C10_13 
REMARK    5  A    between atoms: C10_13  and  C11_15 
REMARK       I    between atoms: N3_18  and  C14_19 
ROOT
HETATM    1  N2  UNL     1      -1.494  -0.351  -5.214  1.00  0.00    -0.267 N 
HETATM    2  C10 UNL     1      -0.892  -1.486  -4.609  1.00  0.00     0.240 C 
HETATM    3  O2  UNL     1       0.295  -1.755  -4.998  1.00  0.00    -0.271 OA
HETATM    4  H11 UNL     1      -2.462  -0.081  -4.936  1.00  0.00     0.190 HD
ENDROOT
BRANCH   2   5
HETATM    5  C11 UNL     1      -1.569  -2.307  -3.603  1.00  0.00     0.082 C 
HETATM    6  C12 UNL     1      -1.100  -3.741  -3.559  1.00  0.00     0.034 C 
HETATM    7  C13 UNL     1      -1.989  -4.558  -2.694  1.00  0.00     0.142 C 
HETATM    8  N3  UNL     1      -2.605  -3.835  -1.612  1.00  0.00    -0.218 N 
HETATM    9  C14 UNL     1      -3.340  -4.630  -0.655  1.00  0.00     0.679 A 
HETATM   10  C18 UNL     1      -2.547  -2.420  -1.416  1.00  0.00     0.142 C 
HETATM   11  N4  UNL     1      -3.398  -5.957  -0.833  1.00  0.00    -0.202 N 
HETATM   12  N5  UNL     1      -3.954  -4.063   0.391  1.00  0.00    -0.202 N 
HETATM   13  C15 UNL     1      -4.085  -6.735   0.055  1.00  0.00     0.107 A 
ATOM     14  H4  UNL     1      -2.929  -6.387  -1.630  1.00  0.00     0.183 HD
HETATM   15  C16 UNL     1      -4.729  -6.155   1.151  1.00  0.00     0.035 A 
HETATM   16  C17 UNL     1      -4.631  -4.801   1.271  1.00  0.00     0.107 A 
ATOM     17  H5  UNL     1      -3.902  -3.052   0.517  1.00  0.00     0.183 HD
HETATM   18  C19 UNL     1      -1.392  -1.800  -2.177  1.00  0.00     0.034 C 
ENDBRANCH   2   5
BRANCH   1  19
HETATM   19  N1  UNL     1      -0.732   0.342  -6.160  1.00  0.00    -0.268 N 
HETATM   20  C1  UNL     1      -0.915   0.199  -7.564  1.00  0.00     0.236 C 
HETATM   21  O1  UNL     1      -1.787  -0.573  -8.066  1.00  0.00    -0.272 OA
HETATM   22  H10 UNL     1       0.008   0.997  -5.768  1.00  0.00     0.190 HD
BRANCH  20  23
HETATM   23  C2  UNL     1      -0.027   1.002  -8.443  1.00  0.00     0.109 C 
BRANCH  23  24
HETATM   24  C3  UNL     1       1.147   1.577  -7.717  1.00  0.00     0.048 C 
BRANCH  24  25
HETATM   25  C4  UNL     1       1.084   3.075  -7.853  1.00  0.00    -0.058 A 
HETATM   26  C5  UNL     1       1.503   3.681  -9.020  1.00  0.00     0.007 A 
HETATM   27  C6  UNL     1       1.453   5.066  -9.166  1.00  0.00     0.001 A 
HETATM   28  C7  UNL     1       0.976   5.817  -8.122  1.00  0.00     0.000 A 
HETATM   29  C8  UNL     1       0.554   5.208  -6.951  1.00  0.00     0.001 A 
HETATM   30  C9  UNL     1       0.602   3.831  -6.798  1.00  0.00     0.007 A 
ENDBRANCH  24  25
ENDBRANCH  23  24
ENDBRANCH  20  23
ENDBRANCH   1  19
TORSDOF 5
ENDMDL
MODEL 4
REMARK VINA RESULT:      -5.3     13.838     14.958
REMARK  5 active torsions:
REMARK  status: ('A' for Active; 'I' for Inactive)
REMARK    1  A    between atoms: C1_2  and  C2_3 
REMARK       I    between atoms: C1_2  and  N1_11 
REMARK    2  A    between atoms: C2_3  and  C3_4 
REMARK    3  A    between atoms: C3_4  and  C4_5 
REMARK    4  A    between atoms: N1_11  and  N2_12 
REMARK       I    between atoms: N2_12  and  C10_13 
REMARK    5  A    between atoms: C10_13  and  C11_15 
REMARK       I    between atoms: N3_18  and  C14_19 
ROOT
HETATM    1  N2  UNL     1      -4.176  -6.025   2.852  1.00  0.00    -0.267 N 
HETATM    2  C10 UNL     1      -4.930  -5.542   1.750  1.00  0.00     0.240 C 
HETATM    3  O2  UNL     1      -6.163  -5.872   1.736  1.00  0.00    -0.271 OA
HETATM    4  H11 UNL     1      -3.164  -5.787   2.918  1.00  0.00     0.190 HD
ENDROOT
BRANCH   2   5
HETATM    5  C11 UNL     1      -4.349  -4.717   0.687  1.00  0.00     0.082 C 
HETATM    6  C12 UNL     1      -3.915  -5.496  -0.531  1.00  0.00     0.034 C 
HETATM    7  C13 UNL     1      -3.127  -4.635  -1.451  1.00  0.00     0.142 C 
HETATM    8  N3  UNL     1      -3.481  -3.240  -1.419  1.00  0.00    -0.218 N 
HETATM    9  C14 UNL     1      -2.854  -2.404  -2.417  1.00  0.00     0.679 A 
HETATM   10  C18 UNL     1      -4.386  -2.631  -0.496  1.00  0.00     0.142 C 
HETATM   11  N4  UNL     1      -2.005  -2.970  -3.287  1.00  0.00    -0.202 N 
HETATM   12  N5  UNL     1      -3.109  -1.091  -2.482  1.00  0.00    -0.202 N 
HETATM   13  C15 UNL     1      -1.398  -2.205  -4.241  1.00  0.00     0.107 A 
ATOM     14  H4  UNL     1      -1.813  -3.970  -3.237  1.00  0.00     0.183 HD
HETATM   15  C16 UNL     1      -1.655  -0.834  -4.319  1.00  0.00     0.035 A 
HETATM   16  C17 UNL     1      -2.528  -0.324  -3.404  1.00  0.00     0.107 A 
ATOM     17  H5  UNL     1      -3.757  -0.672  -1.815  1.00  0.00     0.183 HD
HETATM   18  C19 UNL     1      -5.300  -3.656   0.146  1.00  0.00     0.034 C 
ENDBRANCH   2   5
BRANCH   1  19
HETATM   19  N1  UNL     1      -4.858  -6.802   3.794  1.00  0.00    -0.268 N 
HETATM   20  C1  UNL     1      -4.499  -6.852   5.170  1.00  0.00     0.236 C 
HETATM   21  O1  UNL     1      -3.528  -6.192   5.648  1.00  0.00    -0.272 OA
HETATM   22  H10 UNL     1      -5.677  -7.368   3.421  1.00  0.00     0.190 HD
BRANCH  20  23
HETATM   23  C2  UNL     1      -5.318  -7.726   6.047  1.00  0.00     0.109 C 
BRANCH  23  24
HETATM   24  C3  UNL     1      -6.550  -8.240   5.372  1.00  0.00     0.048 C 
BRANCH  24  25
HETATM   25  C4  UNL     1      -7.662  -8.248   6.386  1.00  0.00    -0.058 A 
HETATM   26  C5  UNL     1      -7.408  -7.888   7.694  1.00  0.00     0.007 A 
HETATM   27  C6  UNL     1      -8.423  -7.890   8.648  1.00  0.00     0.001 A 
HETATM   28  C7  UNL     1      -9.686  -8.256   8.258  1.00  0.00     0.000 A 
HETATM   29  C8  UNL     1      -9.942  -8.616   6.946  1.00  0.00     0.001 A 
HETATM   30  C9  UNL     1      -8.937  -8.618   5.990  1.00  0.00     0.007 A 
ENDBRANCH  24  25
ENDBRANCH  23  24
ENDBRANCH  20  23
ENDBRANCH   1  19
TORSDOF 5
ENDMDL
MODEL 5
REMARK VINA RESULT:      -5.3      9.231     13.492
REMARK  5 active torsions:
REMARK  status: ('A' for Active; 'I' for Inactive)
REMARK    1  A    between atoms: C1_2  and  C2_3 
REMARK       I    between atoms: C1_2  and  N1_11 
REMARK    2  A    between atoms: C2_3  and  C3_4 
REMARK    3  A    between atoms: C3_4  and  C4_5 
REMARK    4  A    between atoms: N1_11  and  N2_12 
REMARK       I    between atoms: N2_12  and  C10_13 
REMARK    5  A    between atoms: C10_13  and  C11_15 
REMARK       I    between atoms: N3_18  and  C14_19 
ROOT
HETATM    1  N2  UNL     1       4.981  -8.447   6.473  1.00  0.00    -0.267 N 
HETATM    2  C10 UNL     1       4.685  -7.766   7.682  1.00  0.00     0.240 C 
HETATM    3  O2  UNL     1       5.696  -7.375   8.358  1.00  0.00    -0.271 OA
HETATM    4  H11 UNL     1       4.197  -8.790   5.878  1.00  0.00     0.190 HD
ENDROOT
BRANCH   2   5
HETATM    5  C11 UNL     1       3.317  -7.516   8.142  1.00  0.00     0.082 C 
HETATM    6  C12 UNL     1       2.372  -8.673   7.927  1.00  0.00     0.034 C 
HETATM    7  C13 UNL     1       0.969  -8.263   8.193  1.00  0.00     0.142 C 
HETATM    8  N3  UNL     1       0.824  -7.224   9.179  1.00  0.00    -0.218 N 
HETATM    9  C14 UNL     1      -0.529  -6.919   9.584  1.00  0.00     0.679 A 
HETATM   10  C18 UNL     1       1.893  -6.487   9.775  1.00  0.00     0.142 C 
HETATM   11  N4  UNL     1      -1.536  -7.608   9.028  1.00  0.00    -0.202 N 
HETATM   12  N5  UNL     1      -0.784  -5.970  10.494  1.00  0.00    -0.202 N 
HETATM   13  C15 UNL     1      -2.825  -7.342   9.391  1.00  0.00     0.107 A 
ATOM     14  H4  UNL     1      -1.340  -8.331   8.336  1.00  0.00     0.183 HD
HETATM   15  C16 UNL     1      -3.104  -6.354  10.339  1.00  0.00     0.035 A 
HETATM   16  C17 UNL     1      -2.033  -5.692  10.863  1.00  0.00     0.107 A 
ATOM     17  H5  UNL     1      -0.009  -5.453  10.910  1.00  0.00     0.183 HD
HETATM   18  C19 UNL     1       3.216  -7.211   9.633  1.00  0.00     0.034 C 
ENDBRANCH   2   5
BRANCH   1  19
HETATM   19  N1  UNL     1       6.333  -8.617   6.155  1.00  0.00    -0.268 N 
HETATM   20  C1  UNL     1       7.114  -7.614   5.515  1.00  0.00     0.236 C 
HETATM   21  O1  UNL     1       6.641  -6.486   5.183  1.00  0.00    -0.272 OA
HETATM   22  H10 UNL     1       6.756  -9.555   6.422  1.00  0.00     0.190 HD
BRANCH  20  23
HETATM   23  C2  UNL     1       8.536  -7.943   5.242  1.00  0.00     0.109 C 
BRANCH  23  24
HETATM   24  C3  UNL     1       8.890  -7.844   3.792  1.00  0.00     0.048 C 
BRANCH  24  25
HETATM   25  C4  UNL     1       9.839  -6.687   3.628  1.00  0.00    -0.058 A 
HETATM   26  C5  UNL     1      10.156  -6.226   2.366  1.00  0.00     0.007 A 
HETATM   27  C6  UNL     1      11.032  -5.157   2.193  1.00  0.00     0.001 A 
HETATM   28  C7  UNL     1      11.575  -4.570   3.308  1.00  0.00     0.000 A 
HETATM   29  C8  UNL     1      11.256  -5.032   4.573  1.00  0.00     0.001 A 
HETATM   30  C9  UNL     1      10.386  -6.095   4.754  1.00  0.00     0.007 A 
ENDBRANCH  24  25
ENDBRANCH  23  24
ENDBRANCH  20  23
ENDBRANCH   1  19
TORSDOF 5
ENDMDL
MODEL 6
REMARK VINA RESULT:      -5.2     10.929     11.790
REMARK  5 active torsions:
REMARK  status: ('A' for Active; 'I' for Inactive)
REMARK    1  A    between atoms: C1_2  and  C2_3 
REMARK       I    between atoms: C1_2  and  N1_11 
REMARK    2  A    between atoms: C2_3  and  C3_4 
REMARK    3  A    between atoms: C3_4  and  C4_5 
REMARK    4  A    between atoms: N1_11  and  N2_12 
REMARK       I    between atoms: N2_12  and  C10_13 
REMARK    5  A    between atoms: C10_13  and  C11_15 
REMARK       I    between atoms: N3_18  and  C14_19 
ROOT
HETATM    1  N2  UNL     1      -1.899   0.019  -1.383  1.00  0.00    -0.267 N 
HETATM    2  C10 UNL     1      -1.055  -1.037  -0.949  1.00  0.00     0.240 C 
HETATM    3  O2  UNL     1      -0.502  -0.869   0.190  1.00  0.00    -0.271 OA
HETATM    4  H11 UNL     1      -2.379  -0.061  -2.305  1.00  0.00     0.190 HD
ENDROOT
BRANCH   2   5
HETATM    5  C11 UNL     1      -0.820  -2.246  -1.740  1.00  0.00     0.082 C 
HETATM    6  C12 UNL     1      -2.023  -3.150  -1.859  1.00  0.00     0.034 C 
HETATM    7  C13 UNL     1      -1.645  -4.453  -2.463  1.00  0.00     0.142 C 
HETATM    8  N3  UNL     1      -0.539  -4.390  -3.384  1.00  0.00    -0.218 N 
HETATM    9  C14 UNL     1      -0.253  -5.603  -4.115  1.00  0.00     0.679 A 
HETATM   10  C18 UNL     1       0.279  -3.243  -3.625  1.00  0.00     0.142 C 
HETATM   11  N4  UNL     1      -1.018  -6.682  -3.894  1.00  0.00    -0.202 N 
HETATM   12  N5  UNL     1       0.752  -5.660  -4.998  1.00  0.00    -0.202 N 
HETATM   13  C15 UNL     1      -0.771  -7.842  -4.569  1.00  0.00     0.107 A 
ATOM     14  H4  UNL     1      -1.784  -6.636  -3.221  1.00  0.00     0.183 HD
HETATM   15  C16 UNL     1       0.275  -7.914  -5.493  1.00  0.00     0.035 A 
HETATM   16  C17 UNL     1       1.012  -6.781  -5.669  1.00  0.00     0.107 A 
ATOM     17  H5  UNL     1       1.327  -4.832  -5.158  1.00  0.00     0.183 HD
HETATM   18  C19 UNL     1      -0.407  -1.967  -3.181  1.00  0.00     0.034 C 
ENDBRANCH   2   5
BRANCH   1  19
HETATM   19  N1  UNL     1      -2.033   1.117  -0.526  1.00  0.00    -0.268 N 
HETATM   20  C1  UNL     1      -3.292   1.667  -0.156  1.00  0.00     0.236 C 
HETATM   21  O1  UNL     1      -4.393   1.201  -0.577  1.00  0.00    -0.272 OA
HETATM   22  H10 UNL     1      -1.125   1.529  -0.158  1.00  0.00     0.190 HD
BRANCH  20  23
HETATM   23  C2  UNL     1      -3.272   2.834   0.762  1.00  0.00     0.109 C 
BRANCH  23  24
HETATM   24  C3  UNL     1      -2.182   3.808   0.443  1.00  0.00     0.048 C 
BRANCH  24  25
HETATM   25  C4  UNL     1      -1.238   3.842   1.615  1.00  0.00    -0.058 A 
HETATM   26  C5  UNL     1      -1.612   4.467   2.786  1.00  0.00     0.007 A 
HETATM   27  C6  UNL     1      -0.753   4.510   3.883  1.00  0.00     0.001 A 
HETATM   28  C7  UNL     1       0.478   3.914   3.772  1.00  0.00     0.000 A 
HETATM   29  C8  UNL     1       0.853   3.285   2.597  1.00  0.00     0.001 A 
HETATM   30  C9  UNL     1       0.004   3.239   1.501  1.00  0.00     0.007 A 
ENDBRANCH  24  25
ENDBRANCH  23  24
ENDBRANCH  20  23
ENDBRANCH   1  19
TORSDOF 5
ENDMDL
MODEL 7
REMARK VINA RESULT:      -5.1     13.646     14.635
REMARK  5 active torsions:
REMARK  status: ('A' for Active; 'I' for Inactive)
REMARK    1  A    between atoms: C1_2  and  C2_3 
REMARK       I    between atoms: C1_2  and  N1_11 
REMARK    2  A    between atoms: C2_3  and  C3_4 
REMARK    3  A    between atoms: C3_4  and  C4_5 
REMARK    4  A    between atoms: N1_11  and  N2_12 
REMARK       I    between atoms: N2_12  and  C10_13 
REMARK    5  A    between atoms: C10_13  and  C11_15 
REMARK       I    between atoms: N3_18  and  C14_19 
ROOT
HETATM    1  N2  UNL     1      -4.202  -0.674   0.513  1.00  0.00    -0.267 N 
HETATM    2  C10 UNL     1      -3.012  -0.571  -0.253  1.00  0.00     0.240 C 
HETATM    3  O2  UNL     1      -2.405   0.551  -0.183  1.00  0.00    -0.271 OA
HETATM    4  H11 UNL     1      -4.742  -1.566   0.497  1.00  0.00     0.190 HD
ENDROOT
BRANCH   2   5
HETATM    5  C11 UNL     1      -2.495  -1.668  -1.075  1.00  0.00     0.082 C 
HETATM    6  C12 UNL     1      -0.999  -1.637  -1.276  1.00  0.00     0.034 C 
HETATM    7  C13 UNL     1      -0.587  -2.628  -2.303  1.00  0.00     0.142 C 
HETATM    8  N3  UNL     1      -1.429  -3.793  -2.387  1.00  0.00    -0.218 N 
HETATM    9  C14 UNL     1      -0.964  -4.850  -3.255  1.00  0.00     0.679 A 
HETATM   10  C18 UNL     1      -2.664  -3.980  -1.692  1.00  0.00     0.142 C 
HETATM   11  N4  UNL     1       0.194  -4.681  -3.910  1.00  0.00    -0.202 N 
HETATM   12  N5  UNL     1      -1.666  -5.979  -3.411  1.00  0.00    -0.202 N 
HETATM   13  C15 UNL     1       0.659  -5.662  -4.737  1.00  0.00     0.107 A 
ATOM     14  H4  UNL     1       0.728  -3.820  -3.789  1.00  0.00     0.183 HD
HETATM   15  C16 UNL     1      -0.065  -6.845  -4.907  1.00  0.00     0.035 A 
HETATM   16  C17 UNL     1      -1.234  -6.951  -4.213  1.00  0.00     0.107 A 
ATOM     17  H5  UNL     1      -2.546  -6.097  -2.907  1.00  0.00     0.183 HD
HETATM   18  C19 UNL     1      -2.777  -3.051  -0.500  1.00  0.00     0.034 C 
ENDBRANCH   2   5
BRANCH   1  19
HETATM   19  N1  UNL     1      -4.580   0.452   1.253  1.00  0.00    -0.268 N 
HETATM   20  C1  UNL     1      -5.687   1.276   0.906  1.00  0.00     0.236 C 
HETATM   21  O1  UNL     1      -6.418   1.052  -0.105  1.00  0.00    -0.272 OA
HETATM   22  H10 UNL     1      -3.984   0.665   2.106  1.00  0.00     0.190 HD
BRANCH  20  23
HETATM   23  C2  UNL     1      -5.962   2.438   1.789  1.00  0.00     0.109 C 
BRANCH  23  24
HETATM   24  C3  UNL     1      -5.667   2.158   3.229  1.00  0.00     0.048 C 
BRANCH  24  25
HETATM   25  C4  UNL     1      -6.940   2.358   4.007  1.00  0.00    -0.058 A 
HETATM   26  C5  UNL     1      -8.047   1.583   3.731  1.00  0.00     0.007 A 
HETATM   27  C6  UNL     1      -9.236   1.752   4.439  1.00  0.00     0.001 A 
HETATM   28  C7  UNL     1      -9.280   2.709   5.422  1.00  0.00     0.000 A 
HETATM   29  C8  UNL     1      -8.168   3.485   5.700  1.00  0.00     0.001 A 
HETATM   30  C9  UNL     1      -6.982   3.324   4.999  1.00  0.00     0.007 A 
ENDBRANCH  24  25
ENDBRANCH  23  24
ENDBRANCH  20  23
ENDBRANCH   1  19
TORSDOF 5
ENDMDL
MODEL 8
REMARK VINA RESULT:      -5.0     14.774     15.744
REMARK  5 active torsions:
REMARK  status: ('A' for Active; 'I' for Inactive)
REMARK    1  A    between atoms: C1_2  and  C2_3 
REMARK       I    between atoms: C1_2  and  N1_11 
REMARK    2  A    between atoms: C2_3  and  C3_4 
REMARK    3  A    between atoms: C3_4  and  C4_5 
REMARK    4  A    between atoms: N1_11  and  N2_12 
REMARK       I    between atoms: N2_12  and  C10_13 
REMARK    5  A    between atoms: C10_13  and  C11_15 
REMARK       I    between atoms: N3_18  and  C14_19 
ROOT
HETATM    1  N2  UNL     1      -6.169   1.175  -0.185  1.00  0.00    -0.267 N 
HETATM    2  C10 UNL     1      -4.843   0.907   0.245  1.00  0.00     0.240 C 
HETATM    3  O2  UNL     1      -4.546   1.327   1.414  1.00  0.00    -0.271 OA
HETATM    4  H11 UNL     1      -6.471   0.856  -1.130  1.00  0.00     0.190 HD
ENDROOT
BRANCH   2   5
HETATM    5  C11 UNL     1      -3.865   0.197  -0.582  1.00  0.00     0.082 C 
HETATM    6  C12 UNL     1      -3.426   0.958  -1.810  1.00  0.00     0.034 C 
HETATM    7  C13 UNL     1      -2.629   0.086  -2.711  1.00  0.00     0.142 C 
HETATM    8  N3  UNL     1      -1.881  -0.947  -2.043  1.00  0.00    -0.218 N 
HETATM    9  C14 UNL     1      -0.968  -1.703  -2.868  1.00  0.00     0.679 A 
HETATM   10  C18 UNL     1      -1.971  -1.274  -0.654  1.00  0.00     0.142 C 
HETATM   11  N4  UNL     1      -0.879  -1.401  -4.171  1.00  0.00    -0.202 N 
HETATM   12  N5  UNL     1      -0.222  -2.688  -2.352  1.00  0.00    -0.202 N 
HETATM   13  C15 UNL     1      -0.025  -2.099  -4.975  1.00  0.00     0.107 A 
ATOM     14  H4  UNL     1      -1.448  -0.650  -4.561  1.00  0.00     0.183 HD
HETATM   15  C16 UNL     1       0.759  -3.129  -4.449  1.00  0.00     0.035 A 
HETATM   16  C17 UNL     1       0.619  -3.384  -3.118  1.00  0.00     0.107 A 
ATOM     17  H5  UNL     1      -0.298  -2.909  -1.359  1.00  0.00     0.183 HD
HETATM   18  C19 UNL     1      -2.569  -0.135   0.148  1.00  0.00     0.034 C 
ENDBRANCH   2   5
BRANCH   1  19
HETATM   19  N1  UNL     1      -6.998   1.863   0.708  1.00  0.00    -0.268 N 
HETATM   20  C1  UNL     1      -8.224   1.333   1.199  1.00  0.00     0.236 C 
HETATM   21  O1  UNL     1      -8.659   0.190   0.864  1.00  0.00    -0.272 OA
HETATM   22  H10 UNL     1      -6.659   2.825   1.006  1.00  0.00     0.190 HD
BRANCH  20  23
HETATM   23  C2  UNL     1      -8.995   2.184   2.141  1.00  0.00     0.109 C 
BRANCH  23  24
HETATM   24  C3  UNL     1      -9.167   1.556   3.488  1.00  0.00     0.048 C 
BRANCH  24  25
HETATM   25  C4  UNL     1      -8.191   2.210   4.428  1.00  0.00    -0.058 A 
HETATM   26  C5  UNL     1      -8.523   3.393   5.056  1.00  0.00     0.007 A 
HETATM   27  C6  UNL     1      -7.634   4.016   5.930  1.00  0.00     0.001 A 
HETATM   28  C7  UNL     1      -6.417   3.424   6.155  1.00  0.00     0.000 A 
HETATM   29  C8  UNL     1      -6.084   2.236   5.526  1.00  0.00     0.001 A 
HETATM   30  C9  UNL     1      -6.962   1.611   4.654  1.00  0.00     0.007 A 
ENDBRANCH  24  25
ENDBRANCH  23  24
ENDBRANCH  20  23
ENDBRANCH   1  19
TORSDOF 5
ENDMDL
MODEL 9
REMARK VINA RESULT:      -5.0     13.024     13.902
REMARK  5 active torsions:
REMARK  status: ('A' for Active; 'I' for Inactive)
REMARK    1  A    between atoms: C1_2  and  C2_3 
REMARK       I    between atoms: C1_2  and  N1_11 
REMARK    2  A    between atoms: C2_3  and  C3_4 
REMARK    3  A    between atoms: C3_4  and  C4_5 
REMARK    4  A    between atoms: N1_11  and  N2_12 
REMARK       I    between atoms: N2_12  and  C10_13 
REMARK    5  A    between atoms: C10_13  and  C11_15 
REMARK       I    between atoms: N3_18  and  C14_19 
ROOT
HETATM    1  N2  UNL     1      -4.160  -5.961   2.909  1.00  0.00    -0.267 N 
HETATM    2  C10 UNL     1      -4.899  -5.551   1.769  1.00  0.00     0.240 C 
HETATM    3  O2  UNL     1      -6.110  -5.955   1.720  1.00  0.00    -0.271 OA
HETATM    4  H11 UNL     1      -3.166  -5.662   3.006  1.00  0.00     0.190 HD
ENDROOT
BRANCH   2   5
HETATM    5  C11 UNL     1      -4.329  -4.718   0.707  1.00  0.00     0.082 C 
HETATM    6  C12 UNL     1      -3.886  -5.489  -0.512  1.00  0.00     0.034 C 
HETATM    7  C13 UNL     1      -3.110  -4.618  -1.431  1.00  0.00     0.142 C 
HETATM    8  N3  UNL     1      -3.481  -3.227  -1.398  1.00  0.00    -0.218 N 
HETATM    9  C14 UNL     1      -2.865  -2.382  -2.395  1.00  0.00     0.679 A 
HETATM   10  C18 UNL     1      -4.393  -2.631  -0.473  1.00  0.00     0.142 C 
HETATM   11  N4  UNL     1      -2.009  -2.936  -3.266  1.00  0.00    -0.202 N 
HETATM   12  N5  UNL     1      -3.136  -1.073  -2.458  1.00  0.00    -0.202 N 
HETATM   13  C15 UNL     1      -1.412  -2.163  -4.220  1.00  0.00     0.107 A 
ATOM     14  H4  UNL     1      -1.804  -3.934  -3.216  1.00  0.00     0.183 HD
HETATM   15  C16 UNL     1      -1.686  -0.795  -4.296  1.00  0.00     0.035 A 
HETATM   16  C17 UNL     1      -2.565  -0.298  -3.380  1.00  0.00     0.107 A 
ATOM     17  H5  UNL     1      -3.789  -0.662  -1.791  1.00  0.00     0.183 HD
HETATM   18  C19 UNL     1      -5.293  -3.667   0.168  1.00  0.00     0.034 C 
ENDBRANCH   2   5
BRANCH   1  19
HETATM   19  N1  UNL     1      -4.829  -6.756   3.846  1.00  0.00    -0.268 N 
HETATM   20  C1  UNL     1      -4.467  -6.812   5.221  1.00  0.00     0.236 C 
HETATM   21  O1  UNL     1      -3.504  -6.142   5.703  1.00  0.00    -0.272 OA
HETATM   22  H10 UNL     1      -5.641  -7.331   3.470  1.00  0.00     0.190 HD
BRANCH  20  23
HETATM   23  C2  UNL     1      -5.272  -7.705   6.093  1.00  0.00     0.109 C 
BRANCH  23  24
HETATM   24  C3  UNL     1      -4.440  -8.702   6.835  1.00  0.00     0.048 C 
BRANCH  24  25
HETATM   25  C4  UNL     1      -4.497  -8.350   8.298  1.00  0.00    -0.058 A 
HETATM   26  C5  UNL     1      -3.379  -7.847   8.932  1.00  0.00     0.007 A 
HETATM   27  C6  UNL     1      -3.411  -7.516  10.285  1.00  0.00     0.001 A 
HETATM   28  C7  UNL     1      -4.582  -7.700  10.976  1.00  0.00     0.000 A 
HETATM   29  C8  UNL     1      -5.704  -8.203  10.339  1.00  0.00     0.001 A 
HETATM   30  C9  UNL     1      -5.680  -8.536   8.993  1.00  0.00     0.007 A 
ENDBRANCH  24  25
ENDBRANCH  23  24
ENDBRANCH  20  23
ENDBRANCH   1  19
TORSDOF 5
ENDMDL
