MODEL 1
REMARK VINA RESULT:      -4.9      0.000      0.000
REMARK  4 active torsions:
REMARK  status: ('A' for Active; 'I' for Inactive)
REMARK    1  A    between atoms: N2_5  and  S1_6 
REMARK    2  A    between atoms: S1_6  and  C4_9 
REMARK    3  A    between atoms: C7_12  and  N3_13 
REMARK       I    between atoms: N3_13  and  C8_14 
REMARK    4  A    between atoms: C8_14  and  C9_16 
ROOT
HETATM    1  C4  UNL     1       7.471  -7.912  -2.955  1.00  0.00     0.079 A 
HETATM    2  C5  UNL     1       7.885  -6.666  -2.526  1.00  0.00     0.027 A 
HETATM    3  C6  UNL     1       7.941  -6.340  -1.174  1.00  0.00     0.031 A 
HETATM    4  C7  UNL     1       7.562  -7.319  -0.270  1.00  0.00     0.035 A 
HETATM    5  C13 UNL     1       7.144  -8.575  -0.695  1.00  0.00     0.031 A 
HETATM    6  C14 UNL     1       7.092  -8.890  -2.055  1.00  0.00     0.027 A 
ENDROOT
BRANCH   1   7
HETATM    7  S1  UNL     1       7.439  -8.215  -4.678  1.00  0.00     0.260 S 
HETATM    8  O1  UNL     1       8.453  -9.256  -4.990  1.00  0.00    -0.200 OA
HETATM    9  O2  UNL     1       6.097  -8.809  -5.087  1.00  0.00    -0.200 OA
BRANCH   7  10
HETATM   10  N2  UNL     1       7.626  -6.772  -5.527  1.00  0.00    -0.304 N 
HETATM   11  C3  UNL     1       6.434  -6.169  -6.006  1.00  0.00     0.155 C 
HETATM   12  C2  UNL     1       6.652  -5.136  -7.072  1.00  0.00     0.137 C 
HETATM   13  N1  UNL     1       7.471  -5.577  -8.153  1.00  0.00    -0.413 N 
HETATM   14  C1  UNL     1       6.780  -5.907  -9.360  1.00  0.00     0.143 C 
HETATM   15  C16 UNL     1       8.498  -6.504  -7.811  1.00  0.00     0.137 C 
HETATM   16  C15 UNL     1       8.770  -6.659  -6.342  1.00  0.00     0.155 C 
ENDBRANCH   7  10
ENDBRANCH   1   7
BRANCH   4  17
HETATM   17  N3  UNL     1       7.603  -7.027   1.132  1.00  0.00    -0.321 N 
HETATM   18  C8  UNL     1       8.764  -7.427   1.863  1.00  0.00     0.279 C 
HETATM   19  O3  UNL     1       9.686  -8.013   1.238  1.00  0.00    -0.265 OA
HETATM   20  H10 UNL     1       6.822  -6.537   1.631  1.00  0.00     0.169 HD
BRANCH  18  21
HETATM   21  C9  UNL     1       8.821  -7.137   3.291  1.00  0.00     0.142 A 
HETATM   22  C10 UNL     1       7.810  -7.274   4.216  1.00  0.00     0.045 A 
HETATM   23  C11 UNL     1       8.369  -6.871   5.423  1.00  0.00     0.027 A 
HETATM   24  C12 UNL     1       9.676  -6.511   5.175  1.00  0.00     0.143 A 
HETATM   25  O4  UNL     1       9.901  -6.685   3.903  1.00  0.00    -0.317 OA
ENDBRANCH  18  21
ENDBRANCH   4  17
TORSDOF 4
ENDMDL
MODEL 2
REMARK VINA RESULT:      -4.8      2.731      9.497
REMARK  4 active torsions:
REMARK  status: ('A' for Active; 'I' for Inactive)
REMARK    1  A    between atoms: N2_5  and  S1_6 
REMARK    2  A    between atoms: S1_6  and  C4_9 
REMARK    3  A    between atoms: C7_12  and  N3_13 
REMARK       I    between atoms: N3_13  and  C8_14 
REMARK    4  A    between atoms: C8_14  and  C9_16 
ROOT
HETATM    1  C4  UNL     1       9.102  -6.966   1.501  1.00  0.00     0.079 A 
HETATM    2  C5  UNL     1      10.009  -6.420   0.615  1.00  0.00     0.027 A 
HETATM    3  C6  UNL     1       9.656  -6.115  -0.697  1.00  0.00     0.031 A 
HETATM    4  C7  UNL     1       8.351  -6.382  -1.080  1.00  0.00     0.035 A 
HETATM    5  C13 UNL     1       7.433  -6.932  -0.193  1.00  0.00     0.031 A 
HETATM    6  C14 UNL     1       7.800  -7.234   1.121  1.00  0.00     0.027 A 
ENDROOT
BRANCH   1   7
HETATM    7  S1  UNL     1       9.652  -7.311   3.126  1.00  0.00     0.260 S 
HETATM    8  O1  UNL     1      10.872  -8.155   3.039  1.00  0.00    -0.200 OA
HETATM    9  O2  UNL     1      10.086  -6.028   3.823  1.00  0.00    -0.200 OA
BRANCH   7  10
HETATM   10  N2  UNL     1       8.399  -7.975   4.037  1.00  0.00    -0.304 N 
HETATM   11  C3  UNL     1       7.510  -7.053   4.645  1.00  0.00     0.155 C 
HETATM   12  C2  UNL     1       6.674  -7.636   5.745  1.00  0.00     0.137 C 
HETATM   13  N1  UNL     1       7.421  -8.349   6.729  1.00  0.00    -0.413 N 
HETATM   14  C1  UNL     1       7.624  -7.666   7.969  1.00  0.00     0.143 C 
HETATM   15  C16 UNL     1       8.581  -9.026   6.253  1.00  0.00     0.137 C 
HETATM   16  C15 UNL     1       8.694  -9.148   4.761  1.00  0.00     0.155 C 
ENDBRANCH   7  10
ENDBRANCH   1   7
BRANCH   4  17
HETATM   17  N3  UNL     1       7.944  -6.084  -2.421  1.00  0.00    -0.321 N 
HETATM   18  C8  UNL     1       8.005  -7.137  -3.386  1.00  0.00     0.279 C 
HETATM   19  O3  UNL     1       8.413  -8.265  -3.008  1.00  0.00    -0.265 OA
HETATM   20  H10 UNL     1       7.607  -5.135  -2.712  1.00  0.00     0.169 HD
BRANCH  18  21
HETATM   21  C9  UNL     1       7.594  -6.849  -4.755  1.00  0.00     0.142 A 
HETATM   22  C10 UNL     1       7.818  -7.617  -5.877  1.00  0.00     0.045 A 
HETATM   23  C11 UNL     1       7.231  -6.909  -6.919  1.00  0.00     0.027 A 
HETATM   24  C12 UNL     1       6.686  -5.760  -6.387  1.00  0.00     0.143 A 
HETATM   25  O4  UNL     1       6.923  -5.766  -5.105  1.00  0.00    -0.317 OA
ENDBRANCH  18  21
ENDBRANCH   4  17
TORSDOF 4
ENDMDL
MODEL 3
REMARK VINA RESULT:      -4.6     11.586     12.427
REMARK  4 active torsions:
REMARK  status: ('A' for Active; 'I' for Inactive)
REMARK    1  A    between atoms: N2_5  and  S1_6 
REMARK    2  A    between atoms: S1_6  and  C4_9 
REMARK    3  A    between atoms: C7_12  and  N3_13 
REMARK       I    between atoms: N3_13  and  C8_14 
REMARK    4  A    between atoms: C8_14  and  C9_16 
ROOT
HETATM    1  C4  UNL     1      -1.099  -2.862  -2.186  1.00  0.00     0.079 A 
HETATM    2  C5  UNL     1      -2.228  -3.435  -1.636  1.00  0.00     0.027 A 
HETATM    3  C6  UNL     1      -3.031  -2.746  -0.732  1.00  0.00     0.031 A 
HETATM    4  C7  UNL     1      -2.650  -1.455  -0.403  1.00  0.00     0.035 A 
HETATM    5  C13 UNL     1      -1.514  -0.872  -0.952  1.00  0.00     0.031 A 
HETATM    6  C14 UNL     1      -0.716  -1.574  -1.859  1.00  0.00     0.027 A 
ENDROOT
BRANCH   1   7
HETATM    7  S1  UNL     1      -0.162  -3.818  -3.313  1.00  0.00     0.260 S 
HETATM    8  O1  UNL     1       0.897  -2.953  -3.894  1.00  0.00    -0.200 OA
HETATM    9  O2  UNL     1       0.572  -4.933  -2.579  1.00  0.00    -0.200 OA
BRANCH   7  10
HETATM   10  N2  UNL     1      -1.176  -4.546  -4.443  1.00  0.00    -0.304 N 
HETATM   11  C3  UNL     1      -1.065  -5.955  -4.569  1.00  0.00     0.155 C 
HETATM   12  C2  UNL     1      -1.667  -6.512  -5.825  1.00  0.00     0.137 C 
HETATM   13  N1  UNL     1      -1.235  -5.858  -7.017  1.00  0.00    -0.413 N 
HETATM   14  C1  UNL     1      -0.270  -6.566  -7.799  1.00  0.00     0.143 C 
HETATM   15  C16 UNL     1      -0.959  -4.465  -6.892  1.00  0.00     0.137 C 
HETATM   16  C15 UNL     1      -1.436  -3.820  -5.623  1.00  0.00     0.155 C 
ENDBRANCH   7  10
ENDBRANCH   1   7
BRANCH   4  17
HETATM   17  N3  UNL     1      -3.447  -0.708   0.525  1.00  0.00    -0.321 N 
HETATM   18  C8  UNL     1      -4.525   0.071   0.002  1.00  0.00     0.279 C 
HETATM   19  O3  UNL     1      -4.716   0.060  -1.241  1.00  0.00    -0.265 OA
HETATM   20  H10 UNL     1      -3.268  -0.715   1.558  1.00  0.00     0.169 HD
BRANCH  18  21
HETATM   21  C9  UNL     1      -5.345   0.837   0.934  1.00  0.00     0.142 A 
HETATM   22  C10 UNL     1      -4.915   1.719   1.900  1.00  0.00     0.045 A 
HETATM   23  C11 UNL     1      -6.076   2.178   2.511  1.00  0.00     0.027 A 
HETATM   24  C12 UNL     1      -7.142   1.558   1.894  1.00  0.00     0.143 A 
HETATM   25  O4  UNL     1      -6.664   0.775   0.968  1.00  0.00    -0.317 OA
ENDBRANCH  18  21
ENDBRANCH   4  17
TORSDOF 4
ENDMDL
MODEL 4
REMARK VINA RESULT:      -4.6     11.885     12.738
REMARK  4 active torsions:
REMARK  status: ('A' for Active; 'I' for Inactive)
REMARK    1  A    between atoms: N2_5  and  S1_6 
REMARK    2  A    between atoms: S1_6  and  C4_9 
REMARK    3  A    between atoms: C7_12  and  N3_13 
REMARK       I    between atoms: N3_13  and  C8_14 
REMARK    4  A    between atoms: C8_14  and  C9_16 
ROOT
HETATM    1  C4  UNL     1      -1.107  -3.045  -2.254  1.00  0.00     0.079 A 
HETATM    2  C5  UNL     1      -0.779  -1.737  -1.953  1.00  0.00     0.027 A 
HETATM    3  C6  UNL     1      -1.541  -0.978  -1.068  1.00  0.00     0.031 A 
HETATM    4  C7  UNL     1      -2.647  -1.590  -0.499  1.00  0.00     0.035 A 
HETATM    5  C13 UNL     1      -2.982  -2.905  -0.798  1.00  0.00     0.031 A 
HETATM    6  C14 UNL     1      -2.210  -3.656  -1.687  1.00  0.00     0.027 A 
ENDROOT
BRANCH   1   7
HETATM    7  S1  UNL     1      -0.081  -3.906  -3.379  1.00  0.00     0.260 S 
HETATM    8  O1  UNL     1       1.120  -3.074  -3.651  1.00  0.00    -0.200 OA
HETATM    9  O2  UNL     1       0.441  -5.190  -2.745  1.00  0.00    -0.200 OA
BRANCH   7  10
HETATM   10  N2  UNL     1      -0.958  -4.346  -4.748  1.00  0.00    -0.304 N 
HETATM   11  C3  UNL     1      -1.725  -3.319  -5.357  1.00  0.00     0.155 C 
HETATM   12  C2  UNL     1      -2.781  -3.815  -6.300  1.00  0.00     0.137 C 
HETATM   13  N1  UNL     1      -3.625  -4.825  -5.752  1.00  0.00    -0.413 N 
HETATM   14  C1  UNL     1      -4.931  -4.397  -5.359  1.00  0.00     0.143 C 
HETATM   15  C16 UNL     1      -3.006  -5.706  -4.817  1.00  0.00     0.137 C 
HETATM   16  C15 UNL     1      -1.508  -5.644  -4.761  1.00  0.00     0.155 C 
ENDBRANCH   7  10
ENDBRANCH   1   7
BRANCH   4  17
HETATM   17  N3  UNL     1      -3.460  -0.846   0.417  1.00  0.00    -0.321 N 
HETATM   18  C8  UNL     1      -4.596  -0.157  -0.108  1.00  0.00     0.279 C 
HETATM   19  O3  UNL     1      -4.822  -0.239  -1.343  1.00  0.00    -0.265 OA
HETATM   20  H10 UNL     1      -3.252  -0.793   1.443  1.00  0.00     0.169 HD
BRANCH  18  21
HETATM   21  C9  UNL     1      -5.434   0.604   0.812  1.00  0.00     0.142 A 
HETATM   22  C10 UNL     1      -5.025   1.365   1.885  1.00  0.00     0.045 A 
HETATM   23  C11 UNL     1      -6.196   1.878   2.429  1.00  0.00     0.027 A 
HETATM   24  C12 UNL     1      -7.247   1.409   1.670  1.00  0.00     0.143 A 
HETATM   25  O4  UNL     1      -6.750   0.660   0.725  1.00  0.00    -0.317 OA
ENDBRANCH  18  21
ENDBRANCH   4  17
TORSDOF 4
ENDMDL
MODEL 5
REMARK VINA RESULT:      -4.6      1.706      2.606
REMARK  4 active torsions:
REMARK  status: ('A' for Active; 'I' for Inactive)
REMARK    1  A    between atoms: N2_5  and  S1_6 
REMARK    2  A    between atoms: S1_6  and  C4_9 
REMARK    3  A    between atoms: C7_12  and  N3_13 
REMARK       I    between atoms: N3_13  and  C8_14 
REMARK    4  A    between atoms: C8_14  and  C9_16 
ROOT
HETATM    1  C4  UNL     1       6.945  -8.236  -4.384  1.00  0.00     0.079 A 
HETATM    2  C5  UNL     1       7.121  -9.265  -3.479  1.00  0.00     0.027 A 
HETATM    3  C6  UNL     1       7.795  -9.073  -2.276  1.00  0.00     0.031 A 
HETATM    4  C7  UNL     1       8.286  -7.802  -2.021  1.00  0.00     0.035 A 
HETATM    5  C13 UNL     1       8.113  -6.763  -2.928  1.00  0.00     0.031 A 
HETATM    6  C14 UNL     1       7.435  -6.968  -4.132  1.00  0.00     0.027 A 
ENDROOT
BRANCH   1   7
HETATM    7  S1  UNL     1       6.083  -8.588  -5.865  1.00  0.00     0.260 S 
HETATM    8  O1  UNL     1       5.672 -10.016  -5.841  1.00  0.00    -0.200 OA
HETATM    9  O2  UNL     1       4.789  -7.786  -5.929  1.00  0.00    -0.200 OA
BRANCH   7  10
HETATM   10  N2  UNL     1       7.012  -8.146  -7.199  1.00  0.00    -0.304 N 
HETATM   11  C3  UNL     1       8.368  -8.562  -7.184  1.00  0.00     0.155 C 
HETATM   12  C2  UNL     1       9.248  -7.833  -8.155  1.00  0.00     0.137 C 
HETATM   13  N1  UNL     1       9.150  -6.412  -8.077  1.00  0.00    -0.413 N 
HETATM   14  C1  UNL     1      10.233  -5.751  -7.418  1.00  0.00     0.143 C 
HETATM   15  C16 UNL     1       7.868  -5.900  -7.724  1.00  0.00     0.137 C 
HETATM   16  C15 UNL     1       6.739  -6.888  -7.774  1.00  0.00     0.155 C 
ENDBRANCH   7  10
ENDBRANCH   1   7
BRANCH   4  17
HETATM   17  N3  UNL     1       8.987  -7.559  -0.795  1.00  0.00    -0.321 N 
HETATM   18  C8  UNL     1       8.226  -7.119   0.332  1.00  0.00     0.279 C 
HETATM   19  O3  UNL     1       6.985  -6.969   0.188  1.00  0.00    -0.265 OA
HETATM   20  H10 UNL     1      10.022  -7.692  -0.700  1.00  0.00     0.169 HD
BRANCH  18  21
HETATM   21  C9  UNL     1       8.925  -6.868   1.587  1.00  0.00     0.142 A 
HETATM   22  C10 UNL     1      10.103  -6.176   1.767  1.00  0.00     0.045 A 
HETATM   23  C11 UNL     1      10.340  -6.221   3.135  1.00  0.00     0.027 A 
HETATM   24  C12 UNL     1       9.308  -6.929   3.713  1.00  0.00     0.143 A 
HETATM   25  O4  UNL     1       8.494  -7.292   2.761  1.00  0.00    -0.317 OA
ENDBRANCH  18  21
ENDBRANCH   4  17
TORSDOF 4
ENDMDL
MODEL 6
REMARK VINA RESULT:      -4.5     11.859     12.752
REMARK  4 active torsions:
REMARK  status: ('A' for Active; 'I' for Inactive)
REMARK    1  A    between atoms: N2_5  and  S1_6 
REMARK    2  A    between atoms: S1_6  and  C4_9 
REMARK    3  A    between atoms: C7_12  and  N3_13 
REMARK       I    between atoms: N3_13  and  C8_14 
REMARK    4  A    between atoms: C8_14  and  C9_16 
ROOT
HETATM    1  C4  UNL     1      -1.140  -1.509  -2.787  1.00  0.00     0.079 A 
HETATM    2  C5  UNL     1      -0.805  -1.537  -1.447  1.00  0.00     0.027 A 
HETATM    3  C6  UNL     1      -1.454  -0.731  -0.515  1.00  0.00     0.031 A 
HETATM    4  C7  UNL     1      -2.453   0.104  -0.987  1.00  0.00     0.035 A 
HETATM    5  C13 UNL     1      -2.795   0.137  -2.334  1.00  0.00     0.031 A 
HETATM    6  C14 UNL     1      -2.136  -0.676  -3.260  1.00  0.00     0.027 A 
ENDROOT
BRANCH   1   7
HETATM    7  S1  UNL     1      -0.260  -2.564  -3.872  1.00  0.00     0.260 S 
HETATM    8  O1  UNL     1       0.148  -1.775  -5.063  1.00  0.00    -0.200 OA
HETATM    9  O2  UNL     1       1.035  -3.032  -3.222  1.00  0.00    -0.200 OA
BRANCH   7  10
HETATM   10  N2  UNL     1      -1.172  -3.938  -4.215  1.00  0.00    -0.304 N 
HETATM   11  C3  UNL     1      -1.596  -4.704  -3.098  1.00  0.00     0.155 C 
HETATM   12  C2  UNL     1      -2.043  -6.095  -3.438  1.00  0.00     0.137 C 
HETATM   13  N1  UNL     1      -1.115  -6.826  -4.236  1.00  0.00    -0.413 N 
HETATM   14  C1  UNL     1      -0.346  -7.815  -3.545  1.00  0.00     0.143 C 
HETATM   15  C16 UNL     1      -0.354  -6.055  -5.162  1.00  0.00     0.137 C 
HETATM   16  C15 UNL     1      -0.833  -4.650  -5.383  1.00  0.00     0.155 C 
ENDBRANCH   7  10
ENDBRANCH   1   7
BRANCH   4  17
HETATM   17  N3  UNL     1      -3.147   0.952  -0.063  1.00  0.00    -0.321 N 
HETATM   18  C8  UNL     1      -4.381   0.477   0.479  1.00  0.00     0.279 C 
HETATM   19  O3  UNL     1      -4.792  -0.655   0.117  1.00  0.00    -0.265 OA
HETATM   20  H10 UNL     1      -2.784   1.892   0.223  1.00  0.00     0.169 HD
BRANCH  18  21
HETATM   21  C9  UNL     1      -5.099   1.329   1.421  1.00  0.00     0.142 A 
HETATM   22  C10 UNL     1      -4.607   2.410   2.117  1.00  0.00     0.045 A 
HETATM   23  C11 UNL     1      -5.680   2.871   2.871  1.00  0.00     0.027 A 
HETATM   24  C12 UNL     1      -6.759   2.056   2.599  1.00  0.00     0.143 A 
HETATM   25  O4  UNL     1      -6.370   1.159   1.737  1.00  0.00    -0.317 OA
ENDBRANCH  18  21
ENDBRANCH   4  17
TORSDOF 4
ENDMDL
MODEL 7
REMARK VINA RESULT:      -4.4      2.879      9.404
REMARK  4 active torsions:
REMARK  status: ('A' for Active; 'I' for Inactive)
REMARK    1  A    between atoms: N2_5  and  S1_6 
REMARK    2  A    between atoms: S1_6  and  C4_9 
REMARK    3  A    between atoms: C7_12  and  N3_13 
REMARK       I    between atoms: N3_13  and  C8_14 
REMARK    4  A    between atoms: C8_14  and  C9_16 
ROOT
HETATM    1  C4  UNL     1       8.765  -7.148   1.197  1.00  0.00     0.079 A 
HETATM    2  C5  UNL     1       9.806  -6.767   0.373  1.00  0.00     0.027 A 
HETATM    3  C6  UNL     1       9.586  -6.360  -0.940  1.00  0.00     0.031 A 
HETATM    4  C7  UNL     1       8.275  -6.353  -1.390  1.00  0.00     0.035 A 
HETATM    5  C13 UNL     1       7.224  -6.735  -0.566  1.00  0.00     0.031 A 
HETATM    6  C14 UNL     1       7.457  -7.142   0.751  1.00  0.00     0.027 A 
ENDROOT
BRANCH   1   7
HETATM    7  S1  UNL     1       9.155  -7.641   2.830  1.00  0.00     0.260 S 
HETATM    8  O1  UNL     1       8.007  -7.298   3.710  1.00  0.00    -0.200 OA
HETATM    9  O2  UNL     1       9.296  -9.156   2.907  1.00  0.00    -0.200 OA
BRANCH   7  10
HETATM   10  N2  UNL     1      10.629  -6.977   3.304  1.00  0.00    -0.304 N 
HETATM   11  C3  UNL     1      11.703  -7.888   3.467  1.00  0.00     0.155 C 
HETATM   12  C2  UNL     1      12.858  -7.346   4.255  1.00  0.00     0.137 C 
HETATM   13  N1  UNL     1      12.489  -6.765   5.504  1.00  0.00    -0.413 N 
HETATM   14  C1  UNL     1      12.760  -7.559   6.662  1.00  0.00     0.143 C 
HETATM   15  C16 UNL     1      11.216  -6.125   5.536  1.00  0.00     0.137 C 
HETATM   16  C15 UNL     1      10.576  -5.889   4.198  1.00  0.00     0.155 C 
ENDBRANCH   7  10
ENDBRANCH   1   7
BRANCH   4  17
HETATM   17  N3  UNL     1       8.002  -5.942  -2.735  1.00  0.00    -0.321 N 
HETATM   18  C8  UNL     1       7.861  -6.960  -3.728  1.00  0.00     0.279 C 
HETATM   19  O3  UNL     1       7.985  -8.160  -3.369  1.00  0.00    -0.265 OA
HETATM   20  H10 UNL     1       7.903  -4.935  -3.010  1.00  0.00     0.169 HD
BRANCH  18  21
HETATM   21  C9  UNL     1       7.583  -6.558  -5.102  1.00  0.00     0.142 A 
HETATM   22  C10 UNL     1       8.350  -6.803  -6.220  1.00  0.00     0.045 A 
HETATM   23  C11 UNL     1       7.653  -6.217  -7.270  1.00  0.00     0.027 A 
HETATM   24  C12 UNL     1       6.511  -5.650  -6.745  1.00  0.00     0.143 A 
HETATM   25  O4  UNL     1       6.510  -5.876  -5.461  1.00  0.00    -0.317 OA
ENDBRANCH  18  21
ENDBRANCH   4  17
TORSDOF 4
ENDMDL
MODEL 8
REMARK VINA RESULT:      -4.4     11.685     12.315
REMARK  4 active torsions:
REMARK  status: ('A' for Active; 'I' for Inactive)
REMARK    1  A    between atoms: N2_5  and  S1_6 
REMARK    2  A    between atoms: S1_6  and  C4_9 
REMARK    3  A    between atoms: C7_12  and  N3_13 
REMARK       I    between atoms: N3_13  and  C8_14 
REMARK    4  A    between atoms: C8_14  and  C9_16 
ROOT
HETATM    1  C4  UNL     1      -4.162  -5.436  -0.367  1.00  0.00     0.079 A 
HETATM    2  C5  UNL     1      -4.780  -4.708   0.629  1.00  0.00     0.027 A 
HETATM    3  C6  UNL     1      -5.107  -5.280   1.857  1.00  0.00     0.031 A 
HETATM    4  C7  UNL     1      -4.785  -6.615   2.039  1.00  0.00     0.035 A 
HETATM    5  C13 UNL     1      -4.163  -7.354   1.039  1.00  0.00     0.031 A 
HETATM    6  C14 UNL     1      -3.840  -6.769  -0.188  1.00  0.00     0.027 A 
ENDROOT
BRANCH   1   7
HETATM    7  S1  UNL     1      -3.797  -4.619  -1.871  1.00  0.00     0.260 S 
HETATM    8  O1  UNL     1      -4.191  -5.507  -2.995  1.00  0.00    -0.200 OA
HETATM    9  O2  UNL     1      -4.651  -3.366  -2.015  1.00  0.00    -0.200 OA
BRANCH   7  10
HETATM   10  N2  UNL     1      -2.185  -4.129  -1.892  1.00  0.00    -0.304 N 
HETATM   11  C3  UNL     1      -1.953  -2.732  -1.808  1.00  0.00     0.155 C 
HETATM   12  C2  UNL     1      -0.576  -2.309  -2.225  1.00  0.00     0.137 C 
HETATM   13  N1  UNL     1      -0.168  -2.819  -3.493  1.00  0.00    -0.413 N 
HETATM   14  C1  UNL     1      -0.205  -1.887  -4.577  1.00  0.00     0.143 C 
HETATM   15  C16 UNL     1      -0.672  -4.109  -3.831  1.00  0.00     0.137 C 
HETATM   16  C15 UNL     1      -1.306  -4.873  -2.705  1.00  0.00     0.155 C 
ENDBRANCH   7  10
ENDBRANCH   1   7
BRANCH   4  17
HETATM   17  N3  UNL     1      -5.103  -7.245   3.286  1.00  0.00    -0.321 N 
HETATM   18  C8  UNL     1      -4.351  -6.859   4.439  1.00  0.00     0.279 C 
HETATM   19  O3  UNL     1      -3.452  -5.990   4.297  1.00  0.00    -0.265 OA
HETATM   20  H10 UNL     1      -5.857  -7.966   3.379  1.00  0.00     0.169 HD
BRANCH  18  21
HETATM   21  C9  UNL     1      -4.663  -7.491   5.716  1.00  0.00     0.142 A 
HETATM   22  C10 UNL     1      -3.789  -7.793   6.737  1.00  0.00     0.045 A 
HETATM   23  C11 UNL     1      -4.577  -8.379   7.721  1.00  0.00     0.027 A 
HETATM   24  C12 UNL     1      -5.874  -8.404   7.255  1.00  0.00     0.143 A 
HETATM   25  O4  UNL     1      -5.878  -7.869   6.066  1.00  0.00    -0.317 OA
ENDBRANCH  18  21
ENDBRANCH   4  17
TORSDOF 4
ENDMDL
MODEL 9
REMARK VINA RESULT:      -4.4     11.517     12.298
REMARK  4 active torsions:
REMARK  status: ('A' for Active; 'I' for Inactive)
REMARK    1  A    between atoms: N2_5  and  S1_6 
REMARK    2  A    between atoms: S1_6  and  C4_9 
REMARK    3  A    between atoms: C7_12  and  N3_13 
REMARK       I    between atoms: N3_13  and  C8_14 
REMARK    4  A    between atoms: C8_14  and  C9_16 
ROOT
HETATM    1  C4  UNL     1      -1.610  -3.843  -2.205  1.00  0.00     0.079 A 
HETATM    2  C5  UNL     1      -0.892  -2.664  -2.177  1.00  0.00     0.027 A 
HETATM    3  C6  UNL     1      -1.242  -1.614  -1.333  1.00  0.00     0.031 A 
HETATM    4  C7  UNL     1      -2.346  -1.800  -0.516  1.00  0.00     0.035 A 
HETATM    5  C13 UNL     1      -3.074  -2.984  -0.539  1.00  0.00     0.031 A 
HETATM    6  C14 UNL     1      -2.713  -4.030  -1.392  1.00  0.00     0.027 A 
ENDROOT
BRANCH   1   7
HETATM    7  S1  UNL     1      -1.082  -5.097  -3.305  1.00  0.00     0.260 S 
HETATM    8  O1  UNL     1       0.390  -5.250  -3.169  1.00  0.00    -0.200 OA
HETATM    9  O2  UNL     1      -1.676  -6.441  -2.902  1.00  0.00    -0.200 OA
BRANCH   7  10
HETATM   10  N2  UNL     1      -1.615  -4.763  -4.868  1.00  0.00    -0.304 N 
HETATM   11  C3  UNL     1      -0.704  -4.070  -5.705  1.00  0.00     0.155 C 
HETATM   12  C2  UNL     1      -1.332  -3.447  -6.917  1.00  0.00     0.137 C 
HETATM   13  N1  UNL     1      -2.476  -2.644  -6.633  1.00  0.00    -0.413 N 
HETATM   14  C1  UNL     1      -2.267  -1.230  -6.671  1.00  0.00     0.143 C 
HETATM   15  C16 UNL     1      -3.275  -3.074  -5.533  1.00  0.00     0.137 C 
HETATM   16  C15 UNL     1      -2.982  -4.454  -5.020  1.00  0.00     0.155 C 
ENDBRANCH   7  10
ENDBRANCH   1   7
BRANCH   4  17
HETATM   17  N3  UNL     1      -2.744  -0.745   0.369  1.00  0.00    -0.321 N 
HETATM   18  C8  UNL     1      -3.745   0.166  -0.087  1.00  0.00     0.279 C 
HETATM   19  O3  UNL     1      -4.223  -0.004  -1.238  1.00  0.00    -0.265 OA
HETATM   20  H10 UNL     1      -2.331  -0.624   1.325  1.00  0.00     0.169 HD
BRANCH  18  21
HETATM   21  C9  UNL     1      -4.161   1.245   0.803  1.00  0.00     0.142 A 
HETATM   22  C10 UNL     1      -5.151   1.208   1.760  1.00  0.00     0.045 A 
HETATM   23  C11 UNL     1      -5.150   2.477   2.326  1.00  0.00     0.027 A 
HETATM   24  C12 UNL     1      -4.172   3.214   1.693  1.00  0.00     0.143 A 
HETATM   25  O4  UNL     1      -3.612   2.446   0.800  1.00  0.00    -0.317 OA
ENDBRANCH  18  21
ENDBRANCH   4  17
TORSDOF 4
ENDMDL
