MODEL 1
REMARK VINA RESULT:      -4.9      0.000      0.000
REMARK  7 active torsions:
REMARK  status: ('A' for Active; 'I' for Inactive)
REMARK    1  A    between atoms: C2_2  and  N1_4 
REMARK    2  A    between atoms: N1_4  and  S1_5 
REMARK    3  A    between atoms: S1_5  and  C4_8 
REMARK    4  A    between atoms: C7_11  and  C8_12 
REMARK    5  A    between atoms: C8_12  and  C9_13 
REMARK    6  A    between atoms: C9_13  and  C10_14 
REMARK       I    between atoms: C10_14  and  N2_16 
REMARK    7  A    between atoms: N2_16  and  C11_17 
ROOT
HETATM    1  C4  UNL     1       9.786  -6.256   0.942  1.00  0.00     0.074 A 
HETATM    2  C5  UNL     1       8.673  -6.996   1.316  1.00  0.00     0.025 A 
HETATM    3  C6  UNL     1       8.434  -7.307   2.635  1.00  0.00     0.009 A 
HETATM    4  C7  UNL     1       9.342  -6.856   3.586  1.00  0.00    -0.058 A 
HETATM    5  C16 UNL     1      10.455  -6.121   3.235  1.00  0.00     0.009 A 
HETATM    6  C17 UNL     1      10.681  -5.815   1.890  1.00  0.00     0.025 A 
ENDROOT
BRANCH   4   7
HETATM    7  C8  UNL     1       9.032  -7.223   5.002  1.00  0.00     0.048 C 
BRANCH   7   8
HETATM    8  C9  UNL     1       7.846  -8.153   4.953  1.00  0.00     0.108 C 
BRANCH   8   9
HETATM    9  C10 UNL     1       6.694  -7.625   5.728  1.00  0.00     0.222 C 
HETATM   10  O3  UNL     1       6.510  -6.388   5.702  1.00  0.00    -0.273 OA
HETATM   11  N2  UNL     1       5.866  -8.506   6.448  1.00  0.00    -0.327 N 
HETATM   12  H15 UNL     1       6.117  -9.526   6.395  1.00  0.00     0.169 HD
BRANCH  11  13
HETATM   13  C11 UNL     1       4.744  -8.159   7.223  1.00  0.00     0.037 A 
HETATM   14  C12 UNL     1       4.939  -7.816   8.563  1.00  0.00     0.046 A 
HETATM   15  C13 UNL     1       3.879  -7.468   9.370  1.00  0.00     0.090 A 
HETATM   16  N3  UNL     1       2.626  -7.451   8.879  1.00  0.00    -0.375 N 
HETATM   17  C14 UNL     1       2.378  -7.766   7.613  1.00  0.00     0.090 A 
ATOM     18  H3  UNL     1       1.853  -7.191   9.491  1.00  0.00     0.164 HD
HETATM   19  C15 UNL     1       3.443  -8.120   6.787  1.00  0.00     0.046 A 
ENDBRANCH  11  13
ENDBRANCH   8   9
ENDBRANCH   7   8
ENDBRANCH   4   7
BRANCH   1  20
HETATM   20  S1  UNL     1       9.968  -5.933  -0.769  1.00  0.00     0.241 S 
HETATM   21  O1  UNL     1      10.930  -6.971  -1.316  1.00  0.00    -0.206 OA
HETATM   22  O2  UNL     1      10.614  -4.609  -0.989  1.00  0.00    -0.206 OA
BRANCH  20  23
HETATM   23  N1  UNL     1       8.489  -6.058  -1.607  1.00  0.00    -0.212 NA
HETATM   24  H8  UNL     1       7.639  -6.003  -1.050  1.00  0.00     0.140 HD
BRANCH  23  25
HETATM   25  C2  UNL     1       8.418  -7.198  -2.487  1.00  0.00     0.063 C 
HETATM   26  C1  UNL     1       7.511  -8.227  -1.822  1.00  0.00     0.027 C 
HETATM   27  C3  UNL     1       7.852  -6.865  -3.830  1.00  0.00     0.027 C 
ENDBRANCH  23  25
ENDBRANCH  20  23
ENDBRANCH   1  20
TORSDOF 7
ENDMDL
MODEL 2
REMARK VINA RESULT:      -4.7      2.729      4.042
REMARK  7 active torsions:
REMARK  status: ('A' for Active; 'I' for Inactive)
REMARK    1  A    between atoms: C2_2  and  N1_4 
REMARK    2  A    between atoms: N1_4  and  S1_5 
REMARK    3  A    between atoms: S1_5  and  C4_8 
REMARK    4  A    between atoms: C7_11  and  C8_12 
REMARK    5  A    between atoms: C8_12  and  C9_13 
REMARK    6  A    between atoms: C9_13  and  C10_14 
REMARK       I    between atoms: C10_14  and  N2_16 
REMARK    7  A    between atoms: N2_16  and  C11_17 
ROOT
HETATM    1  C4  UNL     1       7.794  -7.790  -2.440  1.00  0.00     0.074 A 
HETATM    2  C5  UNL     1       8.422  -6.650  -1.955  1.00  0.00     0.025 A 
HETATM    3  C6  UNL     1       8.428  -6.357  -0.611  1.00  0.00     0.009 A 
HETATM    4  C7  UNL     1       7.787  -7.238   0.252  1.00  0.00    -0.058 A 
HETATM    5  C16 UNL     1       7.157  -8.375  -0.210  1.00  0.00     0.009 A 
HETATM    6  C17 UNL     1       7.161  -8.656  -1.579  1.00  0.00     0.025 A 
ENDROOT
BRANCH   4   7
HETATM    7  C8  UNL     1       7.825  -6.869   1.700  1.00  0.00     0.048 C 
BRANCH   7   8
HETATM    8  C9  UNL     1       8.661  -7.920   2.386  1.00  0.00     0.108 C 
BRANCH   8   9
HETATM    9  C10 UNL     1       8.355  -8.014   3.837  1.00  0.00     0.222 C 
HETATM   10  O3  UNL     1       8.937  -8.914   4.483  1.00  0.00    -0.273 OA
HETATM   11  N2  UNL     1       7.448  -7.115   4.426  1.00  0.00    -0.327 N 
HETATM   12  H15 UNL     1       7.020  -6.400   3.784  1.00  0.00     0.169 HD
BRANCH  11  13
HETATM   13  C11 UNL     1       7.060  -7.079   5.779  1.00  0.00     0.037 A 
HETATM   14  C12 UNL     1       7.827  -6.330   6.673  1.00  0.00     0.046 A 
HETATM   15  C13 UNL     1       7.495  -6.258   8.008  1.00  0.00     0.090 A 
HETATM   16  N3  UNL     1       6.419  -6.912   8.479  1.00  0.00    -0.375 N 
HETATM   17  C14 UNL     1       5.650  -7.640   7.676  1.00  0.00     0.090 A 
ATOM     18  H3  UNL     1       6.188  -6.849   9.470  1.00  0.00     0.164 HD
HETATM   19  C15 UNL     1       5.976  -7.721   6.323  1.00  0.00     0.046 A 
ENDBRANCH  11  13
ENDBRANCH   8   9
ENDBRANCH   7   8
ENDBRANCH   4   7
BRANCH   1  20
HETATM   20  S1  UNL     1       7.862  -8.040  -4.171  1.00  0.00     0.241 S 
HETATM   21  O1  UNL     1       6.547  -8.678  -4.579  1.00  0.00    -0.206 OA
HETATM   22  O2  UNL     1       8.927  -9.021  -4.520  1.00  0.00    -0.206 OA
BRANCH  20  23
HETATM   23  N1  UNL     1       8.052  -6.577  -5.026  1.00  0.00    -0.212 NA
HETATM   24  H8  UNL     1       7.826  -5.720  -4.524  1.00  0.00     0.140 HD
BRANCH  23  25
HETATM   25  C2  UNL     1       7.401  -6.571  -6.312  1.00  0.00     0.063 C 
HETATM   26  C1  UNL     1       6.254  -5.568  -6.234  1.00  0.00     0.027 C 
HETATM   27  C3  UNL     1       8.311  -6.163  -7.425  1.00  0.00     0.027 C 
ENDBRANCH  23  25
ENDBRANCH  20  23
ENDBRANCH   1  20
TORSDOF 7
ENDMDL
MODEL 3
REMARK VINA RESULT:      -4.7      3.424      9.948
REMARK  7 active torsions:
REMARK  status: ('A' for Active; 'I' for Inactive)
REMARK    1  A    between atoms: C2_2  and  N1_4 
REMARK    2  A    between atoms: N1_4  and  S1_5 
REMARK    3  A    between atoms: S1_5  and  C4_8 
REMARK    4  A    between atoms: C7_11  and  C8_12 
REMARK    5  A    between atoms: C8_12  and  C9_13 
REMARK    6  A    between atoms: C9_13  and  C10_14 
REMARK       I    between atoms: C10_14  and  N2_16 
REMARK    7  A    between atoms: N2_16  and  C11_17 
ROOT
HETATM    1  C4  UNL     1       9.500  -6.806   2.136  1.00  0.00     0.074 A 
HETATM    2  C5  UNL     1      10.291  -6.333   1.098  1.00  0.00     0.025 A 
HETATM    3  C6  UNL     1       9.787  -6.189  -0.174  1.00  0.00     0.009 A 
HETATM    4  C7  UNL     1       8.457  -6.530  -0.391  1.00  0.00    -0.058 A 
HETATM    5  C16 UNL     1       7.654  -7.002   0.626  1.00  0.00     0.009 A 
HETATM    6  C17 UNL     1       8.184  -7.142   1.912  1.00  0.00     0.025 A 
ENDROOT
BRANCH   4   7
HETATM    7  C8  UNL     1       7.963  -6.352  -1.791  1.00  0.00     0.048 C 
BRANCH   7   8
HETATM    8  C9  UNL     1       8.684  -7.376  -2.631  1.00  0.00     0.108 C 
BRANCH   8   9
HETATM    9  C10 UNL     1       8.127  -7.460  -4.006  1.00  0.00     0.222 C 
HETATM   10  O3  UNL     1       8.109  -8.590  -4.544  1.00  0.00    -0.273 OA
HETATM   11  N2  UNL     1       7.649  -6.302  -4.645  1.00  0.00    -0.327 N 
HETATM   12  H15 UNL     1       7.714  -5.408  -4.094  1.00  0.00     0.169 HD
BRANCH  11  13
HETATM   13  C11 UNL     1       7.095  -6.223  -5.937  1.00  0.00     0.037 A 
HETATM   14  C12 UNL     1       7.959  -6.067  -7.023  1.00  0.00     0.046 A 
HETATM   15  C13 UNL     1       7.474  -5.983  -8.310  1.00  0.00     0.090 A 
HETATM   16  N3  UNL     1       6.152  -6.052  -8.546  1.00  0.00    -0.375 N 
HETATM   17  C14 UNL     1       5.282  -6.202  -7.553  1.00  0.00     0.090 A 
ATOM     18  H3  UNL     1       5.810  -5.988  -9.505  1.00  0.00     0.164 HD
HETATM   19  C15 UNL     1       5.760  -6.287  -6.246  1.00  0.00     0.046 A 
ENDBRANCH  11  13
ENDBRANCH   8   9
ENDBRANCH   7   8
ENDBRANCH   4   7
BRANCH   1  20
HETATM   20  S1  UNL     1      10.269  -6.941   3.702  1.00  0.00     0.241 S 
HETATM   21  O1  UNL     1      10.645  -5.536   4.134  1.00  0.00    -0.206 OA
HETATM   22  O2  UNL     1      11.545  -7.701   3.599  1.00  0.00    -0.206 OA
BRANCH  20  23
HETATM   23  N1  UNL     1       9.229  -7.616   4.873  1.00  0.00    -0.212 NA
HETATM   24  H8  UNL     1       8.610  -8.362   4.562  1.00  0.00     0.140 HD
BRANCH  23  25
HETATM   25  C2  UNL     1       8.471  -6.633   5.608  1.00  0.00     0.063 C 
HETATM   26  C1  UNL     1       6.995  -6.960   5.410  1.00  0.00     0.027 C 
HETATM   27  C3  UNL     1       8.767  -6.644   7.073  1.00  0.00     0.027 C 
ENDBRANCH  23  25
ENDBRANCH  20  23
ENDBRANCH   1  20
TORSDOF 7
ENDMDL
MODEL 4
REMARK VINA RESULT:      -4.6      2.718      4.211
REMARK  7 active torsions:
REMARK  status: ('A' for Active; 'I' for Inactive)
REMARK    1  A    between atoms: C2_2  and  N1_4 
REMARK    2  A    between atoms: N1_4  and  S1_5 
REMARK    3  A    between atoms: S1_5  and  C4_8 
REMARK    4  A    between atoms: C7_11  and  C8_12 
REMARK    5  A    between atoms: C8_12  and  C9_13 
REMARK    6  A    between atoms: C9_13  and  C10_14 
REMARK       I    between atoms: C10_14  and  N2_16 
REMARK    7  A    between atoms: N2_16  and  C11_17 
ROOT
HETATM    1  C4  UNL     1       8.189  -8.046   4.441  1.00  0.00     0.074 A 
HETATM    2  C5  UNL     1       7.388  -6.952   4.741  1.00  0.00     0.025 A 
HETATM    3  C6  UNL     1       6.596  -6.935   5.866  1.00  0.00     0.009 A 
HETATM    4  C7  UNL     1       6.622  -8.048   6.698  1.00  0.00    -0.058 A 
HETATM    5  C16 UNL     1       7.410  -9.145   6.418  1.00  0.00     0.009 A 
HETATM    6  C17 UNL     1       8.207  -9.144   5.271  1.00  0.00     0.025 A 
ENDROOT
BRANCH   4   7
HETATM    7  C8  UNL     1       5.743  -7.974   7.905  1.00  0.00     0.048 C 
BRANCH   7   8
HETATM    8  C9  UNL     1       4.491  -8.744   7.570  1.00  0.00     0.108 C 
BRANCH   8   9
HETATM    9  C10 UNL     1       3.278  -7.889   7.631  1.00  0.00     0.222 C 
HETATM   10  O3  UNL     1       2.960  -7.277   6.587  1.00  0.00    -0.273 OA
HETATM   11  N2  UNL     1       2.542  -7.793   8.826  1.00  0.00    -0.327 N 
HETATM   12  H15 UNL     1       2.904  -8.353   9.640  1.00  0.00     0.169 HD
BRANCH  11  13
HETATM   13  C11 UNL     1       1.379  -7.029   9.037  1.00  0.00     0.037 A 
HETATM   14  C12 UNL     1       0.137  -7.644   8.865  1.00  0.00     0.046 A 
HETATM   15  C13 UNL     1      -1.035  -6.946   9.058  1.00  0.00     0.090 A 
HETATM   16  N3  UNL     1      -1.005  -5.651   9.418  1.00  0.00    -0.375 N 
HETATM   17  C14 UNL     1       0.146  -5.013   9.598  1.00  0.00     0.090 A 
ATOM     18  H3  UNL     1      -1.882  -5.149   9.556  1.00  0.00     0.164 HD
HETATM   19  C15 UNL     1       1.339  -5.708   9.406  1.00  0.00     0.046 A 
ENDBRANCH  11  13
ENDBRANCH   8   9
ENDBRANCH   7   8
ENDBRANCH   4   7
BRANCH   1  20
HETATM   20  S1  UNL     1       9.144  -7.935   2.979  1.00  0.00     0.241 S 
HETATM   21  O1  UNL     1      10.274  -8.939   3.111  1.00  0.00    -0.206 OA
HETATM   22  O2  UNL     1       9.786  -6.596   2.870  1.00  0.00    -0.206 OA
BRANCH  20  23
HETATM   23  N1  UNL     1       8.235  -8.311   1.586  1.00  0.00    -0.212 NA
HETATM   24  H8  UNL     1       8.326  -9.257   1.220  1.00  0.00     0.140 HD
BRANCH  23  25
HETATM   25  C2  UNL     1       8.397  -7.359   0.516  1.00  0.00     0.063 C 
HETATM   26  C1  UNL     1       9.448  -7.923  -0.435  1.00  0.00     0.027 C 
HETATM   27  C3  UNL     1       7.138  -7.126  -0.255  1.00  0.00     0.027 C 
ENDBRANCH  23  25
ENDBRANCH  20  23
ENDBRANCH   1  20
TORSDOF 7
ENDMDL
MODEL 5
REMARK VINA RESULT:      -4.6      3.293      4.864
REMARK  7 active torsions:
REMARK  status: ('A' for Active; 'I' for Inactive)
REMARK    1  A    between atoms: C2_2  and  N1_4 
REMARK    2  A    between atoms: N1_4  and  S1_5 
REMARK    3  A    between atoms: S1_5  and  C4_8 
REMARK    4  A    between atoms: C7_11  and  C8_12 
REMARK    5  A    between atoms: C8_12  and  C9_13 
REMARK    6  A    between atoms: C9_13  and  C10_14 
REMARK       I    between atoms: C10_14  and  N2_16 
REMARK    7  A    between atoms: N2_16  and  C11_17 
ROOT
HETATM    1  C4  UNL     1       7.268  -8.340  -3.063  1.00  0.00     0.074 A 
HETATM    2  C5  UNL     1       7.025  -9.170  -1.977  1.00  0.00     0.025 A 
HETATM    3  C6  UNL     1       7.304  -8.763  -0.693  1.00  0.00     0.009 A 
HETATM    4  C7  UNL     1       7.836  -7.491  -0.513  1.00  0.00    -0.058 A 
HETATM    5  C16 UNL     1       8.085  -6.652  -1.578  1.00  0.00     0.009 A 
HETATM    6  C17 UNL     1       7.796  -7.083  -2.875  1.00  0.00     0.025 A 
ENDROOT
BRANCH   4   7
HETATM    7  C8  UNL     1       8.118  -7.103   0.903  1.00  0.00     0.048 C 
BRANCH   7   8
HETATM    8  C9  UNL     1       8.794  -8.288   1.545  1.00  0.00     0.108 C 
BRANCH   8   9
HETATM    9  C10 UNL     1       8.731  -8.229   3.028  1.00  0.00     0.222 C 
HETATM   10  O3  UNL     1       9.394  -9.082   3.659  1.00  0.00    -0.273 OA
HETATM   11  N2  UNL     1       7.952  -7.244   3.662  1.00  0.00    -0.327 N 
HETATM   12  H15 UNL     1       7.438  -6.580   3.028  1.00  0.00     0.169 HD
BRANCH  11  13
HETATM   13  C11 UNL     1       7.795  -7.062   5.049  1.00  0.00     0.037 A 
HETATM   14  C12 UNL     1       6.612  -7.500   5.649  1.00  0.00     0.046 A 
HETATM   15  C13 UNL     1       6.403  -7.348   7.002  1.00  0.00     0.090 A 
HETATM   16  N3  UNL     1       7.340  -6.772   7.776  1.00  0.00    -0.375 N 
HETATM   17  C14 UNL     1       8.485  -6.337   7.262  1.00  0.00     0.090 A 
ATOM     18  H3  UNL     1       7.167  -6.667   8.776  1.00  0.00     0.164 HD
HETATM   19  C15 UNL     1       8.708  -6.485   5.894  1.00  0.00     0.046 A 
ENDBRANCH  11  13
ENDBRANCH   8   9
ENDBRANCH   7   8
ENDBRANCH   4   7
BRANCH   1  20
HETATM   20  S1  UNL     1       6.868  -8.984  -4.641  1.00  0.00     0.241 S 
HETATM   21  O1  UNL     1       6.364 -10.399  -4.427  1.00  0.00    -0.206 OA
HETATM   22  O2  UNL     1       8.088  -9.099  -5.487  1.00  0.00    -0.206 OA
BRANCH  20  23
HETATM   23  N1  UNL     1       5.649  -8.078  -5.415  1.00  0.00    -0.212 NA
HETATM   24  H8  UNL     1       4.847  -8.595  -5.769  1.00  0.00     0.140 HD
BRANCH  23  25
HETATM   25  C2  UNL     1       6.148  -7.196  -6.441  1.00  0.00     0.063 C 
HETATM   26  C1  UNL     1       5.151  -7.235  -7.595  1.00  0.00     0.027 C 
HETATM   27  C3  UNL     1       6.283  -5.781  -5.980  1.00  0.00     0.027 C 
ENDBRANCH  23  25
ENDBRANCH  20  23
ENDBRANCH   1  20
TORSDOF 7
ENDMDL
MODEL 6
REMARK VINA RESULT:      -4.5      2.559      9.103
REMARK  7 active torsions:
REMARK  status: ('A' for Active; 'I' for Inactive)
REMARK    1  A    between atoms: C2_2  and  N1_4 
REMARK    2  A    between atoms: N1_4  and  S1_5 
REMARK    3  A    between atoms: S1_5  and  C4_8 
REMARK    4  A    between atoms: C7_11  and  C8_12 
REMARK    5  A    between atoms: C8_12  and  C9_13 
REMARK    6  A    between atoms: C9_13  and  C10_14 
REMARK       I    between atoms: C10_14  and  N2_16 
REMARK    7  A    between atoms: N2_16  and  C11_17 
ROOT
HETATM    1  C4  UNL     1       9.206  -6.806   4.339  1.00  0.00     0.074 A 
HETATM    2  C5  UNL     1       8.310  -7.271   3.387  1.00  0.00     0.025 A 
HETATM    3  C6  UNL     1       8.518  -7.049   2.045  1.00  0.00     0.009 A 
HETATM    4  C7  UNL     1       9.656  -6.345   1.669  1.00  0.00    -0.058 A 
HETATM    5  C16 UNL     1      10.557  -5.874   2.600  1.00  0.00     0.009 A 
HETATM    6  C17 UNL     1      10.330  -6.108   3.958  1.00  0.00     0.025 A 
ENDROOT
BRANCH   4   7
HETATM    7  C8  UNL     1       9.830  -6.134   0.199  1.00  0.00     0.048 C 
BRANCH   7   8
HETATM    8  C9  UNL     1       9.287  -7.367  -0.477  1.00  0.00     0.108 C 
BRANCH   8   9
HETATM    9  C10 UNL     1       8.352  -7.031  -1.582  1.00  0.00     0.222 C 
HETATM   10  O3  UNL     1       7.502  -6.140  -1.356  1.00  0.00    -0.273 OA
HETATM   11  N2  UNL     1       8.446  -7.702  -2.814  1.00  0.00    -0.327 N 
HETATM   12  H15 UNL     1       9.200  -8.432  -2.889  1.00  0.00     0.169 HD
BRANCH  11  13
HETATM   13  C11 UNL     1       7.637  -7.494  -3.948  1.00  0.00     0.037 A 
HETATM   14  C12 UNL     1       6.792  -8.526  -4.362  1.00  0.00     0.046 A 
HETATM   15  C13 UNL     1       5.979  -8.379  -5.464  1.00  0.00     0.090 A 
HETATM   16  N3  UNL     1       5.982  -7.232  -6.166  1.00  0.00    -0.375 N 
HETATM   17  C14 UNL     1       6.764  -6.215  -5.819  1.00  0.00     0.090 A 
ATOM     18  H3  UNL     1       5.374  -7.141  -6.980  1.00  0.00     0.164 HD
HETATM   19  C15 UNL     1       7.592  -6.351  -4.706  1.00  0.00     0.046 A 
ENDBRANCH  11  13
ENDBRANCH   8   9
ENDBRANCH   7   8
ENDBRANCH   4   7
BRANCH   1  20
HETATM   20  S1  UNL     1       8.819  -7.157   6.010  1.00  0.00     0.241 S 
HETATM   21  O1  UNL     1       9.828  -6.412   6.865  1.00  0.00    -0.206 OA
HETATM   22  O2  UNL     1       9.013  -8.605   6.302  1.00  0.00    -0.206 OA
BRANCH  20  23
HETATM   23  N1  UNL     1       7.251  -6.636   6.431  1.00  0.00    -0.212 NA
HETATM   24  H8  UNL     1       7.175  -5.724   6.878  1.00  0.00     0.140 HD
BRANCH  23  25
HETATM   25  C2  UNL     1       6.501  -7.609   7.184  1.00  0.00     0.063 C 
HETATM   26  C1  UNL     1       6.440  -7.116   8.626  1.00  0.00     0.027 C 
HETATM   27  C3  UNL     1       5.103  -7.785   6.684  1.00  0.00     0.027 C 
ENDBRANCH  23  25
ENDBRANCH  20  23
ENDBRANCH   1  20
TORSDOF 7
ENDMDL
MODEL 7
REMARK VINA RESULT:      -4.5      4.318      5.941
REMARK  7 active torsions:
REMARK  status: ('A' for Active; 'I' for Inactive)
REMARK    1  A    between atoms: C2_2  and  N1_4 
REMARK    2  A    between atoms: N1_4  and  S1_5 
REMARK    3  A    between atoms: S1_5  and  C4_8 
REMARK    4  A    between atoms: C7_11  and  C8_12 
REMARK    5  A    between atoms: C8_12  and  C9_13 
REMARK    6  A    between atoms: C9_13  and  C10_14 
REMARK       I    between atoms: C10_14  and  N2_16 
REMARK    7  A    between atoms: N2_16  and  C11_17 
ROOT
HETATM    1  C4  UNL     1      12.323  -2.112   0.402  1.00  0.00     0.074 A 
HETATM    2  C5  UNL     1      11.564  -3.098  -0.215  1.00  0.00     0.025 A 
HETATM    3  C6  UNL     1      11.163  -4.221   0.470  1.00  0.00     0.009 A 
HETATM    4  C7  UNL     1      11.540  -4.342   1.803  1.00  0.00    -0.058 A 
HETATM    5  C16 UNL     1      12.294  -3.375   2.433  1.00  0.00     0.009 A 
HETATM    6  C17 UNL     1      12.692  -2.240   1.721  1.00  0.00     0.025 A 
ENDROOT
BRANCH   4   7
HETATM    7  C8  UNL     1      11.076  -5.583   2.497  1.00  0.00     0.048 C 
BRANCH   7   8
HETATM    8  C9  UNL     1      10.016  -6.194   1.615  1.00  0.00     0.108 C 
BRANCH   8   9
HETATM    9  C10 UNL     1       9.012  -6.958   2.400  1.00  0.00     0.222 C 
HETATM   10  O3  UNL     1       8.118  -7.550   1.756  1.00  0.00    -0.273 OA
HETATM   11  N2  UNL     1       9.094  -6.994   3.804  1.00  0.00    -0.327 N 
HETATM   12  H15 UNL     1       9.890  -6.459   4.237  1.00  0.00     0.169 HD
BRANCH  11  13
HETATM   13  C11 UNL     1       8.223  -7.670   4.679  1.00  0.00     0.037 A 
HETATM   14  C12 UNL     1       7.094  -6.996   5.149  1.00  0.00     0.046 A 
HETATM   15  C13 UNL     1       6.207  -7.608   6.007  1.00  0.00     0.090 A 
HETATM   16  N3  UNL     1       6.412  -8.874   6.410  1.00  0.00    -0.375 N 
HETATM   17  C14 UNL     1       7.467  -9.567   5.996  1.00  0.00     0.090 A 
ATOM     18  H3  UNL     1       5.745  -9.311   7.047  1.00  0.00     0.164 HD
HETATM   19  C15 UNL     1       8.373  -8.959   5.128  1.00  0.00     0.046 A 
ENDBRANCH  11  13
ENDBRANCH   8   9
ENDBRANCH   7   8
ENDBRANCH   4   7
BRANCH   1  20
HETATM   20  S1  UNL     1      12.765  -0.737  -0.587  1.00  0.00     0.241 S 
HETATM   21  O1  UNL     1      11.660  -0.553  -1.610  1.00  0.00    -0.206 OA
HETATM   22  O2  UNL     1      14.006  -1.021  -1.359  1.00  0.00    -0.206 OA
BRANCH  20  23
HETATM   23  N1  UNL     1      12.909   0.694   0.330  1.00  0.00    -0.212 NA
HETATM   24  H8  UNL     1      13.157   0.587   1.312  1.00  0.00     0.140 HD
BRANCH  23  25
HETATM   25  C2  UNL     1      11.772   1.573   0.211  1.00  0.00     0.063 C 
HETATM   26  C1  UNL     1      10.826   1.248   1.363  1.00  0.00     0.027 C 
HETATM   27  C3  UNL     1      12.141   3.019   0.294  1.00  0.00     0.027 C 
ENDBRANCH  23  25
ENDBRANCH  20  23
ENDBRANCH   1  20
TORSDOF 7
ENDMDL
MODEL 8
REMARK VINA RESULT:      -4.5     10.045     11.947
REMARK  7 active torsions:
REMARK  status: ('A' for Active; 'I' for Inactive)
REMARK    1  A    between atoms: C2_2  and  N1_4 
REMARK    2  A    between atoms: N1_4  and  S1_5 
REMARK    3  A    between atoms: S1_5  and  C4_8 
REMARK    4  A    between atoms: C7_11  and  C8_12 
REMARK    5  A    between atoms: C8_12  and  C9_13 
REMARK    6  A    between atoms: C9_13  and  C10_14 
REMARK       I    between atoms: C10_14  and  N2_16 
REMARK    7  A    between atoms: N2_16  and  C11_17 
ROOT
HETATM    1  C4  UNL     1      -1.668  -2.912  -1.766  1.00  0.00     0.074 A 
HETATM    2  C5  UNL     1      -0.452  -3.210  -2.366  1.00  0.00     0.025 A 
HETATM    3  C6  UNL     1      -0.246  -4.416  -2.997  1.00  0.00     0.009 A 
HETATM    4  C7  UNL     1      -1.294  -5.329  -3.018  1.00  0.00    -0.058 A 
HETATM    5  C16 UNL     1      -2.509  -5.052  -2.427  1.00  0.00     0.009 A 
HETATM    6  C17 UNL     1      -2.700  -3.823  -1.791  1.00  0.00     0.025 A 
ENDROOT
BRANCH   4   7
HETATM    7  C8  UNL     1      -1.013  -6.621  -3.716  1.00  0.00     0.048 C 
BRANCH   7   8
HETATM    8  C9  UNL     1      -1.575  -7.711  -2.840  1.00  0.00     0.108 C 
BRANCH   8   9
HETATM    9  C10 UNL     1      -0.528  -8.673  -2.408  1.00  0.00     0.222 C 
HETATM   10  O3  UNL     1       0.378  -8.934  -3.230  1.00  0.00    -0.273 OA
HETATM   11  N2  UNL     1      -0.584  -9.245  -1.124  1.00  0.00    -0.327 N 
HETATM   12  H15 UNL     1      -1.393  -8.951  -0.519  1.00  0.00     0.169 HD
BRANCH  11  13
HETATM   13  C11 UNL     1       0.329 -10.165  -0.575  1.00  0.00     0.037 A 
HETATM   14  C12 UNL     1       1.308  -9.691   0.301  1.00  0.00     0.046 A 
HETATM   15  C13 UNL     1       2.227 -10.545   0.869  1.00  0.00     0.090 A 
HETATM   16  N3  UNL     1       2.200 -11.860   0.589  1.00  0.00    -0.375 N 
HETATM   17  C14 UNL     1       1.292 -12.369  -0.236  1.00  0.00     0.090 A 
ATOM     18  H3  UNL     1       2.890 -12.477   1.018  1.00  0.00     0.164 HD
HETATM   19  C15 UNL     1       0.356 -11.516  -0.817  1.00  0.00     0.046 A 
ENDBRANCH  11  13
ENDBRANCH   8   9
ENDBRANCH   7   8
ENDBRANCH   4   7
BRANCH   1  20
HETATM   20  S1  UNL     1      -1.794  -1.344  -0.999  1.00  0.00     0.241 S 
HETATM   21  O1  UNL     1      -2.152  -0.347  -2.085  1.00  0.00    -0.206 OA
HETATM   22  O2  UNL     1      -0.474  -0.915  -0.457  1.00  0.00    -0.206 OA
BRANCH  20  23
HETATM   23  N1  UNL     1      -3.006  -1.310   0.200  1.00  0.00    -0.212 NA
HETATM   24  H8  UNL     1      -3.242  -2.197   0.640  1.00  0.00     0.140 HD
BRANCH  23  25
HETATM   25  C2  UNL     1      -4.213  -0.640  -0.218  1.00  0.00     0.063 C 
HETATM   26  C1  UNL     1      -5.343  -1.663  -0.154  1.00  0.00     0.027 C 
HETATM   27  C3  UNL     1      -4.572   0.518   0.657  1.00  0.00     0.027 C 
ENDBRANCH  23  25
ENDBRANCH  20  23
ENDBRANCH   1  20
TORSDOF 7
ENDMDL
MODEL 9
REMARK VINA RESULT:      -4.4      1.789      2.357
REMARK  7 active torsions:
REMARK  status: ('A' for Active; 'I' for Inactive)
REMARK    1  A    between atoms: C2_2  and  N1_4 
REMARK    2  A    between atoms: N1_4  and  S1_5 
REMARK    3  A    between atoms: S1_5  and  C4_8 
REMARK    4  A    between atoms: C7_11  and  C8_12 
REMARK    5  A    between atoms: C8_12  and  C9_13 
REMARK    6  A    between atoms: C9_13  and  C10_14 
REMARK       I    between atoms: C10_14  and  N2_16 
REMARK    7  A    between atoms: N2_16  and  C11_17 
ROOT
HETATM    1  C4  UNL     1      10.808  -5.367   1.366  1.00  0.00     0.074 A 
HETATM    2  C5  UNL     1      10.066  -6.326   2.041  1.00  0.00     0.025 A 
HETATM    3  C6  UNL     1      10.067  -6.389   3.416  1.00  0.00     0.009 A 
HETATM    4  C7  UNL     1      10.833  -5.462   4.111  1.00  0.00    -0.058 A 
HETATM    5  C16 UNL     1      11.577  -4.501   3.459  1.00  0.00     0.009 A 
HETATM    6  C17 UNL     1      11.565  -4.452   2.062  1.00  0.00     0.025 A 
ENDROOT
BRANCH   4   7
HETATM    7  C8  UNL     1      10.796  -5.578   5.601  1.00  0.00     0.048 C 
BRANCH   7   8
HETATM    8  C9  UNL     1      10.853  -7.052   5.916  1.00  0.00     0.108 C 
BRANCH   8   9
HETATM    9  C10 UNL     1       9.592  -7.538   6.534  1.00  0.00     0.222 C 
HETATM   10  O3  UNL     1       9.633  -8.647   7.111  1.00  0.00    -0.273 OA
HETATM   11  N2  UNL     1       8.422  -6.760   6.455  1.00  0.00    -0.327 N 
HETATM   12  H15 UNL     1       8.508  -5.844   5.945  1.00  0.00     0.169 HD
BRANCH  11  13
HETATM   13  C11 UNL     1       7.161  -7.085   6.988  1.00  0.00     0.037 A 
HETATM   14  C12 UNL     1       6.958  -6.933   8.361  1.00  0.00     0.046 A 
HETATM   15  C13 UNL     1       5.744  -7.235   8.938  1.00  0.00     0.090 A 
HETATM   16  N3  UNL     1       4.724  -7.684   8.185  1.00  0.00    -0.375 N 
HETATM   17  C14 UNL     1       4.857  -7.847   6.873  1.00  0.00     0.090 A 
ATOM     18  H3  UNL     1       3.833  -7.904   8.629  1.00  0.00     0.164 HD
HETATM   19  C15 UNL     1       6.081  -7.546   6.278  1.00  0.00     0.046 A 
ENDBRANCH  11  13
ENDBRANCH   8   9
ENDBRANCH   7   8
ENDBRANCH   4   7
BRANCH   1  20
HETATM   20  S1  UNL     1      10.717  -5.400  -0.382  1.00  0.00     0.241 S 
HETATM   21  O1  UNL     1      12.127  -5.621  -0.895  1.00  0.00    -0.206 OA
HETATM   22  O2  UNL     1      10.282  -4.078  -0.912  1.00  0.00    -0.206 OA
BRANCH  20  23
HETATM   23  N1  UNL     1       9.721  -6.662  -0.950  1.00  0.00    -0.212 NA
HETATM   24  H8  UNL     1      10.082  -7.219  -1.723  1.00  0.00     0.140 HD
BRANCH  23  25
HETATM   25  C2  UNL     1       8.371  -6.248  -1.240  1.00  0.00     0.063 C 
HETATM   26  C1  UNL     1       8.054  -6.703  -2.661  1.00  0.00     0.027 C 
HETATM   27  C3  UNL     1       7.364  -6.849  -0.314  1.00  0.00     0.027 C 
ENDBRANCH  23  25
ENDBRANCH  20  23
ENDBRANCH   1  20
TORSDOF 7
ENDMDL
