MODEL 1
REMARK VINA RESULT:      -6.1      0.000      0.000
REMARK  6 active torsions:
REMARK  status: ('A' for Active; 'I' for Inactive)
REMARK    1  A    between atoms: C3_3  and  S2_31 
REMARK    2  A    between atoms: C5_5  and  N1_8 
REMARK       I    between atoms: N1_8  and  C8_9 
REMARK    3  A    between atoms: C11_14  and  N4_17 
REMARK    4  A    between atoms: C14_20  and  N5_23 
REMARK       I    between atoms: N5_23  and  C17_24 
REMARK    5  A    between atoms: C17_24  and  C18_26 
REMARK    6  A    between atoms: S2_31  and  N6_34 
ROOT
HETATM    1  N1  UNL     1      -4.827  -4.963   0.568  1.00  0.00    -0.192 N 
HETATM    2  C8  UNL     1      -4.145  -4.949  -0.685  1.00  0.00     0.684 A 
HETATM    3  N2  UNL     1      -4.723  -5.703  -1.658  1.00  0.00    -0.202 N 
ATOM      4  H2  UNL     1      -5.578  -6.226  -1.472  1.00  0.00     0.183 HD
HETATM    5  C9  UNL     1      -4.154  -5.743  -2.845  1.00  0.00     0.110 A 
HETATM    6  C10 UNL     1      -2.993  -5.034  -3.098  1.00  0.00     0.066 A 
HETATM    7  C11 UNL     1      -2.400  -4.265  -2.113  1.00  0.00     0.120 A 
HETATM    8  N3  UNL     1      -3.018  -4.254  -0.914  1.00  0.00    -0.177 N 
ATOM      9  H3  UNL     1      -2.617  -3.701  -0.156  1.00  0.00     0.186 HD
HETATM   10  H7  UNL     1      -5.462  -4.204   0.894  1.00  0.00     0.184 HD
ENDROOT
BRANCH   1  11
HETATM   11  C5  UNL     1      -4.603  -6.103   1.411  1.00  0.00     0.050 A 
HETATM   12  C4  UNL     1      -4.498  -5.982   2.792  1.00  0.00     0.055 A 
HETATM   13  C3  UNL     1      -4.298  -7.047   3.630  1.00  0.00     0.082 A 
HETATM   14  C2  UNL     1      -4.192  -8.305   3.116  1.00  0.00    -0.039 A 
HETATM   15  C1  UNL     1      -3.980  -9.535   3.925  1.00  0.00     0.050 C 
HETATM   16  C7  UNL     1      -4.292  -8.463   1.739  1.00  0.00     0.010 A 
HETATM   17  C6  UNL     1      -4.493  -7.383   0.908  1.00  0.00     0.030 A 
BRANCH  13  18
HETATM   18  S2  UNL     1      -4.173  -6.876   5.377  1.00  0.00     0.239 S 
HETATM   19  O2  UNL     1      -3.077  -7.762   5.906  1.00  0.00    -0.206 OA
HETATM   20  O3  UNL     1      -3.814  -5.444   5.710  1.00  0.00    -0.206 OA
BRANCH  18  21
HETATM   21  N6  UNL     1      -5.635  -7.346   6.147  1.00  0.00    -0.225 NA
HETATM   22  H23 UNL     1      -6.358  -6.630   6.028  1.00  0.00     0.136 HD
HETATM   23  H24 UNL     1      -5.895  -8.310   5.895  1.00  0.00     0.136 HD
ENDBRANCH  18  21
ENDBRANCH  13  18
ENDBRANCH   1  11
BRANCH   7  24
HETATM   24  N4  UNL     1      -1.204  -3.572  -2.406  1.00  0.00    -0.367 N 
HETATM   25  C12 UNL     1      -0.854  -2.266  -1.888  1.00  0.00     0.126 C 
HETATM   26  C13 UNL     1      -0.888  -1.313  -3.086  1.00  0.00     0.045 C 
HETATM   27  C14 UNL     1      -0.671  -1.996  -4.394  1.00  0.00     0.087 C 
HETATM   28  C15 UNL     1       0.239  -3.210  -4.320  1.00  0.00     0.045 C 
HETATM   29  C16 UNL     1      -0.186  -4.185  -3.281  1.00  0.00     0.126 C 
BRANCH  27  30
HETATM   30  N5  UNL     1      -0.128  -1.170  -5.447  1.00  0.00    -0.352 N 
HETATM   31  C17 UNL     1      -0.857  -0.216  -6.193  1.00  0.00     0.258 C 
HETATM   32  O1  UNL     1      -2.077   0.030  -6.030  1.00  0.00    -0.267 OA
HETATM   33  H19 UNL     1       0.898  -1.269  -5.705  1.00  0.00     0.163 HD
BRANCH  31  34
HETATM   34  C18 UNL     1      -0.154   0.535  -7.213  1.00  0.00     0.072 A 
HETATM   35  C19 UNL     1       1.054   1.112  -7.226  1.00  0.00     0.025 A 
HETATM   36  C20 UNL     1       1.480   1.772  -8.315  1.00  0.00     0.009 A 
HETATM   37  C21 UNL     1       0.594   1.806  -9.395  1.00  0.00     0.050 A 
HETATM   38  S1  UNL     1      -0.865   0.882  -8.840  1.00  0.00    -0.097 SA
ENDBRANCH  31  34
ENDBRANCH  27  30
ENDBRANCH   7  24
TORSDOF 6
ENDMDL
MODEL 2
REMARK VINA RESULT:      -6.1      3.781     12.392
REMARK  6 active torsions:
REMARK  status: ('A' for Active; 'I' for Inactive)
REMARK    1  A    between atoms: C3_3  and  S2_31 
REMARK    2  A    between atoms: C5_5  and  N1_8 
REMARK       I    between atoms: N1_8  and  C8_9 
REMARK    3  A    between atoms: C11_14  and  N4_17 
REMARK    4  A    between atoms: C14_20  and  N5_23 
REMARK       I    between atoms: N5_23  and  C17_24 
REMARK    5  A    between atoms: C17_24  and  C18_26 
REMARK    6  A    between atoms: S2_31  and  N6_34 
ROOT
HETATM    1  N1  UNL     1      -3.285  -6.521  -1.399  1.00  0.00    -0.192 N 
HETATM    2  C8  UNL     1      -4.131  -6.600  -0.253  1.00  0.00     0.684 A 
HETATM    3  N2  UNL     1      -5.406  -6.168  -0.453  1.00  0.00    -0.202 N 
ATOM      4  H2  UNL     1      -5.700  -5.821  -1.366  1.00  0.00     0.183 HD
HETATM    5  C9  UNL     1      -6.251  -6.208   0.556  1.00  0.00     0.110 A 
HETATM    6  C10 UNL     1      -5.852  -6.678   1.795  1.00  0.00     0.066 A 
HETATM    7  C11 UNL     1      -4.558  -7.119   2.006  1.00  0.00     0.120 A 
HETATM    8  N3  UNL     1      -3.729  -7.060   0.943  1.00  0.00    -0.177 N 
ATOM      9  H3  UNL     1      -2.764  -7.374   1.052  1.00  0.00     0.186 HD
HETATM   10  H7  UNL     1      -3.055  -7.334  -2.009  1.00  0.00     0.184 HD
ENDROOT
BRANCH   1  11
HETATM   11  C5  UNL     1      -2.730  -5.233  -1.703  1.00  0.00     0.050 A 
HETATM   12  C4  UNL     1      -1.821  -5.055  -2.739  1.00  0.00     0.055 A 
HETATM   13  C3  UNL     1      -1.280  -3.840  -3.069  1.00  0.00     0.082 A 
HETATM   14  C2  UNL     1      -1.630  -2.727  -2.364  1.00  0.00    -0.039 A 
HETATM   15  C1  UNL     1      -1.113  -1.359  -2.632  1.00  0.00     0.050 C 
HETATM   16  C7  UNL     1      -2.536  -2.869  -1.320  1.00  0.00     0.010 A 
HETATM   17  C6  UNL     1      -3.073  -4.097  -0.999  1.00  0.00     0.030 A 
BRANCH  13  18
HETATM   18  S2  UNL     1      -0.135  -3.632  -4.389  1.00  0.00     0.239 S 
HETATM   19  O2  UNL     1      -0.662  -2.626  -5.376  1.00  0.00    -0.206 OA
HETATM   20  O3  UNL     1       1.169  -3.100  -3.835  1.00  0.00    -0.206 OA
BRANCH  18  21
HETATM   21  N6  UNL     1       0.105  -5.109  -5.233  1.00  0.00    -0.225 NA
HETATM   22  H23 UNL     1       1.008  -5.111  -5.718  1.00  0.00     0.136 HD
HETATM   23  H24 UNL     1      -0.095  -5.920  -4.629  1.00  0.00     0.136 HD
ENDBRANCH  18  21
ENDBRANCH  13  18
ENDBRANCH   1  11
BRANCH   7  24
HETATM   24  N4  UNL     1      -4.186  -7.573   3.291  1.00  0.00    -0.367 N 
HETATM   25  C12 UNL     1      -4.161  -8.960   3.706  1.00  0.00     0.126 C 
HETATM   26  C13 UNL     1      -5.286  -9.114   4.733  1.00  0.00     0.045 C 
HETATM   27  C14 UNL     1      -5.642  -7.838   5.419  1.00  0.00     0.087 C 
HETATM   28  C15 UNL     1      -4.478  -6.878   5.595  1.00  0.00     0.045 C 
HETATM   29  C16 UNL     1      -3.756  -6.610   4.323  1.00  0.00     0.126 C 
BRANCH  27  30
HETATM   30  N5  UNL     1      -6.230  -7.977   6.730  1.00  0.00    -0.352 N 
HETATM   31  C17 UNL     1      -7.615  -7.951   7.011  1.00  0.00     0.258 C 
HETATM   32  O1  UNL     1      -8.511  -7.800   6.144  1.00  0.00    -0.267 OA
HETATM   33  H19 UNL     1      -5.594  -8.107   7.571  1.00  0.00     0.163 HD
BRANCH  31  34
HETATM   34  C18 UNL     1      -8.037  -8.113   8.387  1.00  0.00     0.072 A 
HETATM   35  C19 UNL     1      -7.967  -7.296   9.445  1.00  0.00     0.025 A 
HETATM   36  C20 UNL     1      -8.430  -7.693  10.641  1.00  0.00     0.009 A 
HETATM   37  C21 UNL     1      -8.971  -8.982  10.691  1.00  0.00     0.050 A 
HETATM   38  S1  UNL     1      -8.812  -9.627   9.003  1.00  0.00    -0.097 SA
ENDBRANCH  31  34
ENDBRANCH  27  30
ENDBRANCH   7  24
TORSDOF 6
ENDMDL
MODEL 3
REMARK VINA RESULT:      -6.1      4.287      6.218
REMARK  6 active torsions:
REMARK  status: ('A' for Active; 'I' for Inactive)
REMARK    1  A    between atoms: C3_3  and  S2_31 
REMARK    2  A    between atoms: C5_5  and  N1_8 
REMARK       I    between atoms: N1_8  and  C8_9 
REMARK    3  A    between atoms: C11_14  and  N4_17 
REMARK    4  A    between atoms: C14_20  and  N5_23 
REMARK       I    between atoms: N5_23  and  C17_24 
REMARK    5  A    between atoms: C17_24  and  C18_26 
REMARK    6  A    between atoms: S2_31  and  N6_34 
ROOT
HETATM    1  N1  UNL     1      -3.154  -6.251  -2.581  1.00  0.00    -0.192 N 
HETATM    2  C8  UNL     1      -2.076  -5.316  -2.574  1.00  0.00     0.684 A 
HETATM    3  N2  UNL     1      -0.860  -5.845  -2.875  1.00  0.00    -0.202 N 
ATOM      4  H2  UNL     1      -0.762  -6.838  -3.087  1.00  0.00     0.183 HD
HETATM    5  C9  UNL     1       0.189  -5.047  -2.890  1.00  0.00     0.110 A 
HETATM    6  C10 UNL     1       0.057  -3.700  -2.604  1.00  0.00     0.066 A 
HETATM    7  C11 UNL     1      -1.177  -3.155  -2.296  1.00  0.00     0.120 A 
HETATM    8  N3  UNL     1      -2.221  -4.010  -2.293  1.00  0.00    -0.177 N 
ATOM      9  H3  UNL     1      -3.151  -3.654  -2.071  1.00  0.00     0.186 HD
HETATM   10  H7  UNL     1      -3.826  -6.357  -3.370  1.00  0.00     0.184 HD
ENDROOT
BRANCH   1  11
HETATM   11  C5  UNL     1      -3.299  -7.077  -1.417  1.00  0.00     0.050 A 
HETATM   12  C4  UNL     1      -3.969  -6.633  -0.284  1.00  0.00     0.055 A 
HETATM   13  C3  UNL     1      -4.140  -7.397   0.841  1.00  0.00     0.082 A 
HETATM   14  C2  UNL     1      -3.637  -8.663   0.884  1.00  0.00    -0.039 A 
HETATM   15  C1  UNL     1      -3.763  -9.585   2.045  1.00  0.00     0.050 C 
HETATM   16  C7  UNL     1      -2.960  -9.140  -0.231  1.00  0.00     0.010 A 
HETATM   17  C6  UNL     1      -2.796  -8.361  -1.356  1.00  0.00     0.030 A 
BRANCH  13  18
HETATM   18  S2  UNL     1      -4.998  -6.820   2.265  1.00  0.00     0.239 S 
HETATM   19  O2  UNL     1      -5.696  -5.523   1.957  1.00  0.00    -0.206 OA
HETATM   20  O3  UNL     1      -6.053  -7.834   2.653  1.00  0.00    -0.206 OA
BRANCH  18  21
HETATM   21  N6  UNL     1      -3.911  -6.528   3.562  1.00  0.00    -0.225 NA
HETATM   22  H23 UNL     1      -3.146  -7.210   3.559  1.00  0.00     0.136 HD
HETATM   23  H24 UNL     1      -3.642  -5.534   3.606  1.00  0.00     0.136 HD
ENDBRANCH  18  21
ENDBRANCH  13  18
ENDBRANCH   1  11
BRANCH   7  24
HETATM   24  N4  UNL     1      -1.266  -1.779  -1.990  1.00  0.00    -0.367 N 
HETATM   25  C12 UNL     1      -0.466  -1.098  -0.993  1.00  0.00     0.126 C 
HETATM   26  C13 UNL     1      -1.433  -0.705   0.127  1.00  0.00     0.045 C 
HETATM   27  C14 UNL     1      -2.847  -0.571  -0.328  1.00  0.00     0.087 C 
HETATM   28  C15 UNL     1      -2.998  -0.098  -1.763  1.00  0.00     0.045 C 
HETATM   29  C16 UNL     1      -2.209  -0.914  -2.724  1.00  0.00     0.126 C 
BRANCH  27  30
HETATM   30  N5  UNL     1      -3.675   0.312   0.459  1.00  0.00    -0.352 N 
HETATM   31  C17 UNL     1      -5.067   0.162   0.660  1.00  0.00     0.258 C 
HETATM   32  O1  UNL     1      -5.758  -0.766   0.170  1.00  0.00    -0.267 OA
HETATM   33  H19 UNL     1      -3.231   1.151   0.934  1.00  0.00     0.163 HD
BRANCH  31  34
HETATM   34  C18 UNL     1      -5.746   1.137   1.486  1.00  0.00     0.072 A 
HETATM   35  C19 UNL     1      -5.295   2.004   2.401  1.00  0.00     0.025 A 
HETATM   36  C20 UNL     1      -6.148   2.813   3.050  1.00  0.00     0.009 A 
HETATM   37  C21 UNL     1      -7.497   2.682   2.706  1.00  0.00     0.050 A 
HETATM   38  S1  UNL     1      -7.538   1.385   1.438  1.00  0.00    -0.097 SA
ENDBRANCH  31  34
ENDBRANCH  27  30
ENDBRANCH   7  24
TORSDOF 6
ENDMDL
MODEL 4
REMARK VINA RESULT:      -5.9      4.004     11.993
REMARK  6 active torsions:
REMARK  status: ('A' for Active; 'I' for Inactive)
REMARK    1  A    between atoms: C3_3  and  S2_31 
REMARK    2  A    between atoms: C5_5  and  N1_8 
REMARK       I    between atoms: N1_8  and  C8_9 
REMARK    3  A    between atoms: C11_14  and  N4_17 
REMARK    4  A    between atoms: C14_20  and  N5_23 
REMARK       I    between atoms: N5_23  and  C17_24 
REMARK    5  A    between atoms: C17_24  and  C18_26 
REMARK    6  A    between atoms: S2_31  and  N6_34 
ROOT
HETATM    1  N1  UNL     1      -3.310  -6.655  -1.388  1.00  0.00    -0.192 N 
HETATM    2  C8  UNL     1      -4.152  -6.718  -0.238  1.00  0.00     0.684 A 
HETATM    3  N2  UNL     1      -5.425  -6.283  -0.437  1.00  0.00    -0.202 N 
ATOM      4  H2  UNL     1      -5.723  -5.945  -1.352  1.00  0.00     0.183 HD
HETATM    5  C9  UNL     1      -6.267  -6.309   0.576  1.00  0.00     0.110 A 
HETATM    6  C10 UNL     1      -5.864  -6.767   1.818  1.00  0.00     0.066 A 
HETATM    7  C11 UNL     1      -4.571  -7.211   2.028  1.00  0.00     0.120 A 
HETATM    8  N3  UNL     1      -3.746  -7.166   0.962  1.00  0.00    -0.177 N 
ATOM      9  H3  UNL     1      -2.782  -7.482   1.069  1.00  0.00     0.186 HD
HETATM   10  H7  UNL     1      -3.086  -7.475  -1.990  1.00  0.00     0.184 HD
ENDROOT
BRANCH   1  11
HETATM   11  C5  UNL     1      -2.752  -5.372  -1.708  1.00  0.00     0.050 A 
HETATM   12  C4  UNL     1      -3.237  -4.201  -1.140  1.00  0.00     0.055 A 
HETATM   13  C3  UNL     1      -2.722  -2.960  -1.409  1.00  0.00     0.082 A 
HETATM   14  C2  UNL     1      -1.678  -2.832  -2.277  1.00  0.00    -0.039 A 
HETATM   15  C1  UNL     1      -1.035  -1.542  -2.643  1.00  0.00     0.050 C 
HETATM   16  C7  UNL     1      -1.169  -3.984  -2.865  1.00  0.00     0.010 A 
HETATM   17  C6  UNL     1      -1.696  -5.225  -2.585  1.00  0.00     0.030 A 
BRANCH  13  18
HETATM   18  S2  UNL     1      -3.345  -1.487  -0.675  1.00  0.00     0.239 S 
HETATM   19  O2  UNL     1      -2.291  -0.858   0.196  1.00  0.00    -0.206 OA
HETATM   20  O3  UNL     1      -3.696  -0.499  -1.766  1.00  0.00    -0.206 OA
BRANCH  18  21
HETATM   21  N6  UNL     1      -4.705  -1.824   0.320  1.00  0.00    -0.225 NA
HETATM   22  H23 UNL     1      -5.281  -0.986   0.448  1.00  0.00     0.136 HD
HETATM   23  H24 UNL     1      -5.193  -2.676   0.007  1.00  0.00     0.136 HD
ENDBRANCH  18  21
ENDBRANCH  13  18
ENDBRANCH   1  11
BRANCH   7  24
HETATM   24  N4  UNL     1      -4.195  -7.652   3.317  1.00  0.00    -0.367 N 
HETATM   25  C12 UNL     1      -4.236  -9.028   3.767  1.00  0.00     0.126 C 
HETATM   26  C13 UNL     1      -5.344  -9.094   4.821  1.00  0.00     0.045 C 
HETATM   27  C14 UNL     1      -5.615  -7.784   5.481  1.00  0.00     0.087 C 
HETATM   28  C15 UNL     1      -4.397  -6.886   5.607  1.00  0.00     0.045 C 
HETATM   29  C16 UNL     1      -3.691  -6.688   4.314  1.00  0.00     0.126 C 
BRANCH  27  30
HETATM   30  N5  UNL     1      -6.180  -7.858   6.808  1.00  0.00    -0.352 N 
HETATM   31  C17 UNL     1      -7.561  -7.845   7.109  1.00  0.00     0.258 C 
HETATM   32  O1  UNL     1      -8.473  -7.763   6.249  1.00  0.00    -0.267 OA
HETATM   33  H19 UNL     1      -5.529  -7.926   7.644  1.00  0.00     0.163 HD
BRANCH  31  34
HETATM   34  C18 UNL     1      -7.958  -7.934   8.499  1.00  0.00     0.072 A 
HETATM   35  C19 UNL     1      -7.270  -7.786   9.636  1.00  0.00     0.025 A 
HETATM   36  C20 UNL     1      -7.880  -7.931  10.824  1.00  0.00     0.009 A 
HETATM   37  C21 UNL     1      -9.243  -8.239  10.778  1.00  0.00     0.050 A 
HETATM   38  S1  UNL     1      -9.650  -8.320   9.012  1.00  0.00    -0.097 SA
ENDBRANCH  31  34
ENDBRANCH  27  30
ENDBRANCH   7  24
TORSDOF 6
ENDMDL
MODEL 5
REMARK VINA RESULT:      -5.7      5.439      9.600
REMARK  6 active torsions:
REMARK  status: ('A' for Active; 'I' for Inactive)
REMARK    1  A    between atoms: C3_3  and  S2_31 
REMARK    2  A    between atoms: C5_5  and  N1_8 
REMARK       I    between atoms: N1_8  and  C8_9 
REMARK    3  A    between atoms: C11_14  and  N4_17 
REMARK    4  A    between atoms: C14_20  and  N5_23 
REMARK       I    between atoms: N5_23  and  C17_24 
REMARK    5  A    between atoms: C17_24  and  C18_26 
REMARK    6  A    between atoms: S2_31  and  N6_34 
ROOT
HETATM    1  N1  UNL     1      -8.197  -7.407   8.557  1.00  0.00    -0.192 N 
HETATM    2  C8  UNL     1      -7.487  -8.232   7.634  1.00  0.00     0.684 A 
HETATM    3  N2  UNL     1      -7.968  -9.498   7.511  1.00  0.00    -0.202 N 
ATOM      4  H2  UNL     1      -8.778  -9.802   8.052  1.00  0.00     0.183 HD
HETATM    5  C9  UNL     1      -7.368 -10.323   6.678  1.00  0.00     0.110 A 
HETATM    6  C10 UNL     1      -6.269  -9.912   5.944  1.00  0.00     0.066 A 
HETATM    7  C11 UNL     1      -5.774  -8.625   6.063  1.00  0.00     0.120 A 
HETATM    8  N3  UNL     1      -6.421  -7.817   6.928  1.00  0.00    -0.177 N 
ATOM      9  H3  UNL     1      -6.091  -6.859   7.050  1.00  0.00     0.186 HD
HETATM   10  H7  UNL     1      -8.906  -6.698   8.276  1.00  0.00     0.184 HD
ENDROOT
BRANCH   1  11
HETATM   11  C5  UNL     1      -7.893  -7.587   9.947  1.00  0.00     0.050 A 
HETATM   12  C4  UNL     1      -6.595  -7.814  10.389  1.00  0.00     0.055 A 
HETATM   13  C3  UNL     1      -6.263  -7.977  11.708  1.00  0.00     0.082 A 
HETATM   14  C2  UNL     1      -7.233  -7.919  12.664  1.00  0.00    -0.039 A 
HETATM   15  C1  UNL     1      -6.993  -8.076  14.123  1.00  0.00     0.050 C 
HETATM   16  C7  UNL     1      -8.543  -7.694  12.258  1.00  0.00     0.010 A 
HETATM   17  C6  UNL     1      -8.862  -7.532  10.928  1.00  0.00     0.030 A 
BRANCH  13  18
HETATM   18  S2  UNL     1      -4.612  -8.257  12.249  1.00  0.00     0.239 S 
HETATM   19  O2  UNL     1      -4.227  -7.235  13.285  1.00  0.00    -0.206 OA
HETATM   20  O3  UNL     1      -4.527  -9.625  12.893  1.00  0.00    -0.206 OA
BRANCH  18  21
HETATM   21  N6  UNL     1      -3.504  -8.114  10.945  1.00  0.00    -0.225 NA
HETATM   22  H23 UNL     1      -3.380  -7.133  10.676  1.00  0.00     0.136 HD
HETATM   23  H24 UNL     1      -2.646  -8.655  11.124  1.00  0.00     0.136 HD
ENDBRANCH  18  21
ENDBRANCH  13  18
ENDBRANCH   1  11
BRANCH   7  24
HETATM   24  N4  UNL     1      -4.638  -8.251   5.311  1.00  0.00    -0.367 N 
HETATM   25  C12 UNL     1      -3.672  -7.250   5.711  1.00  0.00     0.126 C 
HETATM   26  C13 UNL     1      -3.847  -6.081   4.737  1.00  0.00     0.045 C 
HETATM   27  C14 UNL     1      -4.434  -6.484   3.426  1.00  0.00     0.087 C 
HETATM   28  C15 UNL     1      -4.066  -7.889   2.984  1.00  0.00     0.045 C 
HETATM   29  C16 UNL     1      -4.349  -8.913   4.024  1.00  0.00     0.126 C 
BRANCH  27  30
HETATM   30  N5  UNL     1      -4.109  -5.630   2.308  1.00  0.00    -0.352 N 
HETATM   31  C17 UNL     1      -5.024  -5.190   1.324  1.00  0.00     0.258 C 
HETATM   32  O1  UNL     1      -6.242  -5.495   1.301  1.00  0.00    -0.267 OA
HETATM   33  H19 UNL     1      -3.109  -5.291   2.189  1.00  0.00     0.163 HD
BRANCH  31  34
HETATM   34  C18 UNL     1      -4.531  -4.328   0.270  1.00  0.00     0.072 A 
HETATM   35  C19 UNL     1      -3.509  -4.454  -0.585  1.00  0.00     0.025 A 
HETATM   36  C20 UNL     1      -3.249  -3.489  -1.481  1.00  0.00     0.009 A 
HETATM   37  C21 UNL     1      -4.100  -2.380  -1.450  1.00  0.00     0.050 A 
HETATM   38  S1  UNL     1      -5.285  -2.730  -0.122  1.00  0.00    -0.097 SA
ENDBRANCH  31  34
ENDBRANCH  27  30
ENDBRANCH   7  24
TORSDOF 6
ENDMDL
MODEL 6
REMARK VINA RESULT:      -5.7      6.501      9.954
REMARK  6 active torsions:
REMARK  status: ('A' for Active; 'I' for Inactive)
REMARK    1  A    between atoms: C3_3  and  S2_31 
REMARK    2  A    between atoms: C5_5  and  N1_8 
REMARK       I    between atoms: N1_8  and  C8_9 
REMARK    3  A    between atoms: C11_14  and  N4_17 
REMARK    4  A    between atoms: C14_20  and  N5_23 
REMARK       I    between atoms: N5_23  and  C17_24 
REMARK    5  A    between atoms: C17_24  and  C18_26 
REMARK    6  A    between atoms: S2_31  and  N6_34 
ROOT
HETATM    1  N1  UNL     1      -4.303  -3.919   0.278  1.00  0.00    -0.192 N 
HETATM    2  C8  UNL     1      -5.306  -2.961  -0.056  1.00  0.00     0.684 A 
HETATM    3  N2  UNL     1      -6.406  -3.477  -0.669  1.00  0.00    -0.202 N 
ATOM      4  H2  UNL     1      -6.475  -4.476  -0.860  1.00  0.00     0.183 HD
HETATM    5  C9  UNL     1      -7.379  -2.658  -1.011  1.00  0.00     0.110 A 
HETATM    6  C10 UNL     1      -7.286  -1.301  -0.753  1.00  0.00     0.066 A 
HETATM    7  C11 UNL     1      -6.171  -0.770  -0.130  1.00  0.00     0.120 A 
HETATM    8  N3  UNL     1      -5.200  -1.647   0.201  1.00  0.00    -0.177 N 
ATOM      9  H3  UNL     1      -4.358  -1.301   0.662  1.00  0.00     0.186 HD
HETATM   10  H7  UNL     1      -4.173  -4.316   1.232  1.00  0.00     0.184 HD
ENDROOT
BRANCH   1  11
HETATM   11  C5  UNL     1      -3.433  -4.338  -0.784  1.00  0.00     0.050 A 
HETATM   12  C4  UNL     1      -2.542  -3.460  -1.389  1.00  0.00     0.055 A 
HETATM   13  C3  UNL     1      -1.687  -3.825  -2.395  1.00  0.00     0.082 A 
HETATM   14  C2  UNL     1      -1.683  -5.110  -2.850  1.00  0.00    -0.039 A 
HETATM   15  C1  UNL     1      -0.799  -5.623  -3.930  1.00  0.00     0.050 C 
HETATM   16  C7  UNL     1      -2.562  -6.015  -2.267  1.00  0.00     0.010 A 
HETATM   17  C6  UNL     1      -3.416  -5.634  -1.256  1.00  0.00     0.030 A 
BRANCH  13  18
HETATM   18  S2  UNL     1      -0.561  -2.700  -3.146  1.00  0.00     0.239 S 
HETATM   19  O2  UNL     1      -0.826  -2.615  -4.625  1.00  0.00    -0.206 OA
HETATM   20  O3  UNL     1      -0.770  -1.322  -2.557  1.00  0.00    -0.206 OA
BRANCH  18  21
HETATM   21  N6  UNL     1       1.062  -3.224  -2.940  1.00  0.00    -0.225 NA
HETATM   22  H23 UNL     1       1.720  -2.463  -3.133  1.00  0.00     0.136 HD
HETATM   23  H24 UNL     1       1.182  -3.721  -2.045  1.00  0.00     0.136 HD
ENDBRANCH  18  21
ENDBRANCH  13  18
ENDBRANCH   1  11
BRANCH   7  24
HETATM   24  N4  UNL     1      -6.106   0.623   0.097  1.00  0.00    -0.367 N 
HETATM   25  C12 UNL     1      -4.886   1.372   0.312  1.00  0.00     0.126 C 
HETATM   26  C13 UNL     1      -4.926   1.832   1.772  1.00  0.00     0.045 C 
HETATM   27  C14 UNL     1      -6.307   1.929   2.327  1.00  0.00     0.087 C 
HETATM   28  C15 UNL     1      -7.365   2.306   1.305  1.00  0.00     0.045 C 
HETATM   29  C16 UNL     1      -7.340   1.432   0.101  1.00  0.00     0.126 C 
BRANCH  27  30
HETATM   30  N5  UNL     1      -6.478   2.856   3.420  1.00  0.00    -0.352 N 
HETATM   31  C17 UNL     1      -6.372   2.530   4.791  1.00  0.00     0.258 C 
HETATM   32  O1  UNL     1      -6.117   1.381   5.229  1.00  0.00    -0.267 OA
HETATM   33  H19 UNL     1      -6.704   3.872   3.206  1.00  0.00     0.163 HD
BRANCH  31  34
HETATM   34  C18 UNL     1      -6.567   3.587   5.762  1.00  0.00     0.072 A 
HETATM   35  C19 UNL     1      -5.976   3.845   6.935  1.00  0.00     0.025 A 
HETATM   36  C20 UNL     1      -6.350   4.907   7.666  1.00  0.00     0.009 A 
HETATM   37  C21 UNL     1      -7.371   5.694   7.124  1.00  0.00     0.050 A 
HETATM   38  S1  UNL     1      -7.794   4.899   5.549  1.00  0.00    -0.097 SA
ENDBRANCH  31  34
ENDBRANCH  27  30
ENDBRANCH   7  24
TORSDOF 6
ENDMDL
MODEL 7
REMARK VINA RESULT:      -5.7      5.869      9.423
REMARK  6 active torsions:
REMARK  status: ('A' for Active; 'I' for Inactive)
REMARK    1  A    between atoms: C3_3  and  S2_31 
REMARK    2  A    between atoms: C5_5  and  N1_8 
REMARK       I    between atoms: N1_8  and  C8_9 
REMARK    3  A    between atoms: C11_14  and  N4_17 
REMARK    4  A    between atoms: C14_20  and  N5_23 
REMARK       I    between atoms: N5_23  and  C17_24 
REMARK    5  A    between atoms: C17_24  and  C18_26 
REMARK    6  A    between atoms: S2_31  and  N6_34 
ROOT
HETATM    1  N1  UNL     1      -0.471  -1.767  -3.588  1.00  0.00    -0.192 N 
HETATM    2  C8  UNL     1      -1.143  -1.271  -2.432  1.00  0.00     0.684 A 
HETATM    3  N2  UNL     1      -0.406  -1.293  -1.289  1.00  0.00    -0.202 N 
ATOM      4  H2  UNL     1       0.551  -1.645  -1.294  1.00  0.00     0.183 HD
HETATM    5  C9  UNL     1      -0.955  -0.851  -0.176  1.00  0.00     0.110 A 
HETATM    6  C10 UNL     1      -2.254  -0.374  -0.168  1.00  0.00     0.066 A 
HETATM    7  C11 UNL     1      -3.009  -0.348  -1.327  1.00  0.00     0.120 A 
HETATM    8  N3  UNL     1      -2.405  -0.811  -2.442  1.00  0.00    -0.177 N 
ATOM      9  H3  UNL     1      -2.924  -0.812  -3.320  1.00  0.00     0.186 HD
HETATM   10  H7  UNL     1      -0.036  -1.160  -4.314  1.00  0.00     0.184 HD
ENDROOT
BRANCH   1  11
HETATM   11  C5  UNL     1      -0.409  -3.194  -3.735  1.00  0.00     0.050 A 
HETATM   12  C4  UNL     1      -1.439  -4.019  -3.299  1.00  0.00     0.055 A 
HETATM   13  C3  UNL     1      -1.423  -5.382  -3.434  1.00  0.00     0.082 A 
HETATM   14  C2  UNL     1      -0.356  -5.994  -4.021  1.00  0.00    -0.039 A 
HETATM   15  C1  UNL     1      -0.229  -7.461  -4.225  1.00  0.00     0.050 C 
HETATM   16  C7  UNL     1       0.692  -5.199  -4.468  1.00  0.00     0.010 A 
HETATM   17  C6  UNL     1       0.663  -3.829  -4.327  1.00  0.00     0.030 A 
BRANCH  13  18
HETATM   18  S2  UNL     1      -2.740  -6.411  -2.880  1.00  0.00     0.239 S 
HETATM   19  O2  UNL     1      -3.852  -5.568  -2.317  1.00  0.00    -0.206 OA
HETATM   20  O3  UNL     1      -3.294  -7.183  -4.058  1.00  0.00    -0.206 OA
BRANCH  18  21
HETATM   21  N6  UNL     1      -2.212  -7.470  -1.636  1.00  0.00    -0.225 NA
HETATM   22  H23 UNL     1      -2.965  -8.104  -1.350  1.00  0.00     0.136 HD
HETATM   23  H24 UNL     1      -1.309  -7.906  -1.876  1.00  0.00     0.136 HD
ENDBRANCH  18  21
ENDBRANCH  13  18
ENDBRANCH   1  11
BRANCH   7  24
HETATM   24  N4  UNL     1      -4.338   0.128  -1.273  1.00  0.00    -0.367 N 
HETATM   25  C12 UNL     1      -4.735   1.505  -1.481  1.00  0.00     0.126 C 
HETATM   26  C13 UNL     1      -5.228   2.012  -0.122  1.00  0.00     0.045 C 
HETATM   27  C14 UNL     1      -5.708   0.924   0.779  1.00  0.00     0.087 C 
HETATM   28  C15 UNL     1      -6.330  -0.257   0.055  1.00  0.00     0.045 C 
HETATM   29  C16 UNL     1      -5.451  -0.806  -1.012  1.00  0.00     0.126 C 
BRANCH  27  30
HETATM   30  N5  UNL     1      -6.676   1.320   1.774  1.00  0.00    -0.352 N 
HETATM   31  C17 UNL     1      -6.377   1.992   2.982  1.00  0.00     0.258 C 
HETATM   32  O1  UNL     1      -5.221   2.326   3.340  1.00  0.00    -0.267 OA
HETATM   33  H19 UNL     1      -7.703   1.100   1.614  1.00  0.00     0.163 HD
BRANCH  31  34
HETATM   34  C18 UNL     1      -7.473   2.322   3.869  1.00  0.00     0.072 A 
HETATM   35  C19 UNL     1      -8.492   1.595   4.341  1.00  0.00     0.025 A 
HETATM   36  C20 UNL     1      -9.401   2.148   5.160  1.00  0.00     0.009 A 
HETATM   37  C21 UNL     1      -9.205   3.498   5.468  1.00  0.00     0.050 A 
HETATM   38  S1  UNL     1      -7.701   3.974   4.573  1.00  0.00    -0.097 SA
ENDBRANCH  31  34
ENDBRANCH  27  30
ENDBRANCH   7  24
TORSDOF 6
ENDMDL
MODEL 8
REMARK VINA RESULT:      -5.6      6.675     10.179
REMARK  6 active torsions:
REMARK  status: ('A' for Active; 'I' for Inactive)
REMARK    1  A    between atoms: C3_3  and  S2_31 
REMARK    2  A    between atoms: C5_5  and  N1_8 
REMARK       I    between atoms: N1_8  and  C8_9 
REMARK    3  A    between atoms: C11_14  and  N4_17 
REMARK    4  A    between atoms: C14_20  and  N5_23 
REMARK       I    between atoms: N5_23  and  C17_24 
REMARK    5  A    between atoms: C17_24  and  C18_26 
REMARK    6  A    between atoms: S2_31  and  N6_34 
ROOT
HETATM    1  N1  UNL     1      -3.683  -3.034   0.218  1.00  0.00    -0.192 N 
HETATM    2  C8  UNL     1      -4.965  -2.520  -0.138  1.00  0.00     0.684 A 
HETATM    3  N2  UNL     1      -5.736  -3.366  -0.872  1.00  0.00    -0.202 N 
ATOM      4  H2  UNL     1      -5.393  -4.291  -1.131  1.00  0.00     0.183 HD
HETATM    5  C9  UNL     1      -6.935  -2.966  -1.242  1.00  0.00     0.110 A 
HETATM    6  C10 UNL     1      -7.402  -1.711  -0.892  1.00  0.00     0.066 A 
HETATM    7  C11 UNL     1      -6.623  -0.845  -0.145  1.00  0.00     0.120 A 
HETATM    8  N3  UNL     1      -5.403  -1.299   0.210  1.00  0.00    -0.177 N 
ATOM      9  H3  UNL     1      -4.792  -0.694   0.761  1.00  0.00     0.186 HD
HETATM   10  H7  UNL     1      -3.456  -3.435   1.153  1.00  0.00     0.184 HD
ENDROOT
BRANCH   1  11
HETATM   11  C5  UNL     1      -2.664  -2.981  -0.791  1.00  0.00     0.050 A 
HETATM   12  C4  UNL     1      -2.429  -4.047  -1.651  1.00  0.00     0.055 A 
HETATM   13  C3  UNL     1      -1.476  -4.029  -2.635  1.00  0.00     0.082 A 
HETATM   14  C2  UNL     1      -0.699  -2.922  -2.807  1.00  0.00    -0.039 A 
HETATM   15  C1  UNL     1       0.361  -2.785  -3.840  1.00  0.00     0.050 C 
HETATM   16  C7  UNL     1      -0.906  -1.837  -1.964  1.00  0.00     0.010 A 
HETATM   17  C6  UNL     1      -1.868  -1.869  -0.979  1.00  0.00     0.030 A 
BRANCH  13  18
HETATM   18  S2  UNL     1      -1.197  -5.387  -3.719  1.00  0.00     0.239 S 
HETATM   19  O2  UNL     1      -1.485  -4.981  -5.139  1.00  0.00    -0.206 OA
HETATM   20  O3  UNL     1       0.258  -5.795  -3.638  1.00  0.00    -0.206 OA
BRANCH  18  21
HETATM   21  N6  UNL     1      -2.233  -6.702  -3.335  1.00  0.00    -0.225 NA
HETATM   22  H23 UNL     1      -1.936  -7.162  -2.469  1.00  0.00     0.136 HD
HETATM   23  H24 UNL     1      -3.224  -6.425  -3.392  1.00  0.00     0.136 HD
ENDBRANCH  18  21
ENDBRANCH  13  18
ENDBRANCH   1  11
BRANCH   7  24
HETATM   24  N4  UNL     1      -7.128   0.435   0.174  1.00  0.00    -0.367 N 
HETATM   25  C12 UNL     1      -6.513   1.689  -0.209  1.00  0.00     0.126 C 
HETATM   26  C13 UNL     1      -6.005   2.323   1.088  1.00  0.00     0.045 C 
HETATM   27  C14 UNL     1      -6.740   1.864   2.302  1.00  0.00     0.087 C 
HETATM   28  C15 UNL     1      -8.199   1.524   2.057  1.00  0.00     0.045 C 
HETATM   29  C16 UNL     1      -8.387   0.568   0.933  1.00  0.00     0.126 C 
BRANCH  27  30
HETATM   30  N5  UNL     1      -6.738   2.780   3.417  1.00  0.00    -0.352 N 
HETATM   31  C17 UNL     1      -6.394   2.447   4.748  1.00  0.00     0.258 C 
HETATM   32  O1  UNL     1      -6.047   1.301   5.124  1.00  0.00    -0.267 OA
HETATM   33  H19 UNL     1      -7.017   3.793   3.255  1.00  0.00     0.163 HD
BRANCH  31  34
HETATM   34  C18 UNL     1      -6.440   3.494   5.747  1.00  0.00     0.072 A 
HETATM   35  C19 UNL     1      -5.629   3.789   6.771  1.00  0.00     0.025 A 
HETATM   36  C20 UNL     1      -5.902   4.829   7.576  1.00  0.00     0.009 A 
HETATM   37  C21 UNL     1      -7.058   5.553   7.269  1.00  0.00     0.050 A 
HETATM   38  S1  UNL     1      -7.759   4.731   5.812  1.00  0.00    -0.097 SA
ENDBRANCH  31  34
ENDBRANCH  27  30
ENDBRANCH   7  24
TORSDOF 6
ENDMDL
MODEL 9
REMARK VINA RESULT:      -5.5      4.203      6.495
REMARK  6 active torsions:
REMARK  status: ('A' for Active; 'I' for Inactive)
REMARK    1  A    between atoms: C3_3  and  S2_31 
REMARK    2  A    between atoms: C5_5  and  N1_8 
REMARK       I    between atoms: N1_8  and  C8_9 
REMARK    3  A    between atoms: C11_14  and  N4_17 
REMARK    4  A    between atoms: C14_20  and  N5_23 
REMARK       I    between atoms: N5_23  and  C17_24 
REMARK    5  A    between atoms: C17_24  and  C18_26 
REMARK    6  A    between atoms: S2_31  and  N6_34 
ROOT
HETATM    1  N1  UNL     1      -2.035  -8.919   3.809  1.00  0.00    -0.192 N 
HETATM    2  C8  UNL     1      -3.309  -8.629   3.236  1.00  0.00     0.684 A 
HETATM    3  N2  UNL     1      -4.313  -9.459   3.629  1.00  0.00    -0.202 N 
ATOM      4  H2  UNL     1      -4.134 -10.219   4.285  1.00  0.00     0.183 HD
HETATM    5  C9  UNL     1      -5.522  -9.258   3.145  1.00  0.00     0.110 A 
HETATM    6  C10 UNL     1      -5.765  -8.228   2.254  1.00  0.00     0.066 A 
HETATM    7  C11 UNL     1      -4.749  -7.381   1.850  1.00  0.00     0.120 A 
HETATM    8  N3  UNL     1      -3.529  -7.624   2.373  1.00  0.00    -0.177 N 
ATOM      9  H3  UNL     1      -2.747  -7.026   2.103  1.00  0.00     0.186 HD
HETATM   10  H7  UNL     1      -1.628  -8.399   4.615  1.00  0.00     0.184 HD
ENDROOT
BRANCH   1  11
HETATM   11  C5  UNL     1      -1.290  -9.993   3.217  1.00  0.00     0.050 A 
HETATM   12  C4  UNL     1      -0.417  -9.780   2.157  1.00  0.00     0.055 A 
HETATM   13  C3  UNL     1       0.322 -10.777   1.574  1.00  0.00     0.082 A 
HETATM   14  C2  UNL     1       0.217 -12.056   2.033  1.00  0.00    -0.039 A 
HETATM   15  C1  UNL     1       0.969 -13.216   1.485  1.00  0.00     0.050 C 
HETATM   16  C7  UNL     1      -0.648 -12.305   3.092  1.00  0.00     0.010 A 
HETATM   17  C6  UNL     1      -1.384 -11.294   3.668  1.00  0.00     0.030 A 
BRANCH  13  18
HETATM   18  S2  UNL     1       1.428 -10.487   0.237  1.00  0.00     0.239 S 
HETATM   19  O2  UNL     1       1.513  -9.012  -0.053  1.00  0.00    -0.206 OA
HETATM   20  O3  UNL     1       2.811 -10.964   0.625  1.00  0.00    -0.206 OA
BRANCH  18  21
HETATM   21  N6  UNL     1       0.880 -11.264  -1.194  1.00  0.00    -0.225 NA
HETATM   22  H23 UNL     1       0.373 -10.609  -1.795  1.00  0.00     0.136 HD
HETATM   23  H24 UNL     1       1.638 -11.804  -1.637  1.00  0.00     0.136 HD
ENDBRANCH  18  21
ENDBRANCH  13  18
ENDBRANCH   1  11
BRANCH   7  24
HETATM   24  N4  UNL     1      -5.035  -6.353   0.924  1.00  0.00    -0.367 N 
HETATM   25  C12 UNL     1      -5.587  -6.559  -0.399  1.00  0.00     0.126 C 
HETATM   26  C13 UNL     1      -4.473  -6.192  -1.383  1.00  0.00     0.045 C 
HETATM   27  C14 UNL     1      -3.473  -5.239  -0.819  1.00  0.00     0.087 C 
HETATM   28  C15 UNL     1      -4.044  -4.264   0.196  1.00  0.00     0.045 C 
HETATM   29  C16 UNL     1      -4.798  -4.942   1.284  1.00  0.00     0.126 C 
BRANCH  27  30
HETATM   30  N5  UNL     1      -2.772  -4.426  -1.784  1.00  0.00    -0.352 N 
HETATM   31  C17 UNL     1      -1.801  -4.897  -2.698  1.00  0.00     0.258 C 
HETATM   32  O1  UNL     1      -1.426  -6.093  -2.778  1.00  0.00    -0.267 OA
HETATM   33  H19 UNL     1      -2.980  -3.385  -1.832  1.00  0.00     0.163 HD
BRANCH  31  34
HETATM   34  C18 UNL     1      -1.198  -3.944  -3.605  1.00  0.00     0.072 A 
HETATM   35  C19 UNL     1       0.021  -3.394  -3.644  1.00  0.00     0.025 A 
HETATM   36  C20 UNL     1       0.338  -2.510  -4.604  1.00  0.00     0.009 A 
HETATM   37  C21 UNL     1      -0.672  -2.220  -5.527  1.00  0.00     0.050 A 
HETATM   38  S1  UNL     1      -2.089  -3.228  -5.009  1.00  0.00    -0.097 SA
ENDBRANCH  31  34
ENDBRANCH  27  30
ENDBRANCH   7  24
TORSDOF 6
ENDMDL
